/*--------------------------------*- C++ -*----------------------------------*\
  =========                 |
  \\      /  F ield         | OpenFOAM: The Open Source CFD Toolbox
   \\    /   O peration     | Website:  https://openfoam.org
    \\  /    A nd           | Version:  10
     \\/     M anipulation  |
\*---------------------------------------------------------------------------*/
FoamFile
{
    format      ascii;
    class       volScalarField;
    location    "15";
    object      C;
}
// * * * * * * * * * * * * * * * * * * * * * * * * * * * * * * * * * * * * * //

dimensions      [1 3 0 0 0 0 0];

internalField   nonuniform List<scalar> 
75457
(
0.499985
0.499983
0.49999
0.499994
0.499993
0.499993
0.49999
0.499989
0.499998
0.499998
0.499998
0.499994
0.499994
0.499997
0.499886
0.499902
0.499949
0.499916
0.499913
0.499951
0.499925
0.49994
0.499901
0.4999
0.49994
0.499828
0.499821
0.492314
0.490871
0.491848
0.493094
0.490212
0.490307
0.495679
0.495584
0.496108
0.495758
0.489813
0.490739
0.495912
0.496222
0.495931
0.496036
0.497006
0.495533
0.498231
0.498229
0.496832
0.499956
0.499585
0.499542
0.499947
0.499932
0.499626
0.49977
0.499815
0.499837
0.499836
0.499965
0.499943
0.499908
0.499959
0.5
0.5
0.5
0.5
0.5
0.5
0.5
0.5
0.5
0.5
0.5
0.5
0.5
0.5
0.5
0.292455
0.300531
0.319988
0.298645
0.25959
0.282959
0.326374
0.26691
0.25357
0.338061
0.372906
0.298704
0.331124
0.207042
0.367195
0.305241
0.213085
0.5
0.5
0.5
0.5
0.5
0.5
0.5
0.5
0.5
0.5
0.5
0.5
0.5
0.5
0.5
0.5
0.5
0.5
0.5
0.5
0.5
0.5
0.5
0.5
0.5
0.5
0.5
0.5
0.5
0.5
0.5
0.5
0.5
0.5
0.5
0.5
0.5
0.5
0.5
0.5
0.5
0.5
0.5
0.5
0.5
0.5
0.5
0.5
0.5
0.5
0.5
0.5
0.5
0.5
0.5
0.5
0.5
0.5
0.5
0.5
0.5
0.5
0.5
0.5
0.5
0.5
0.5
0.5
0.5
0.5
0.5
0.5
0.5
0.5
0.5
0.5
0.5
0.5
0.5
0.5
0.5
0.5
0.5
0.5
0.5
0.5
0.5
0.5
0.5
0.5
0.5
0.5
0.5
0.5
0.5
0.5
0.499606
0.499502
0.49944
0.499102
0.498878
0.499001
0.5
0.5
0.5
0.5
0.5
0.5
0.5
0.5
0.5
0.5
0.5
0.499998
0.499999
0.499999
0.499998
0.499996
0.499999
0.499998
0.499996
0.499997
0.499999
0.499996
0.499998
0.499999
0.499998
0.5
0.5
0.5
0.5
0.5
0.5
0.5
0.5
0.5
0.5
0.5
0.5
0.5
0.5
0.499961
0.499943
0.499959
0.499975
0.499976
0.499955
0.499979
0.499959
0.49994
0.499966
0.49995
0.49998
0.499986
0.499943
0.499957
0.499982
0.499958
0.496524
0.496717
0.496621
0.496724
0.497596
0.497747
0.497889
0.498526
0.498497
0.498508
0.496448
0.497839
0.498784
0.499131
0.496998
0.49878
0.499137
0.498857
0.498794
0.499152
0.496621
0.49568
0.498775
0.495981
0.498782
0.5
0.5
0.5
0.5
0.5
0.5
0.5
0.5
0.5
0.5
0.5
0.5
0.5
0.5
0.5
0.488976
0.488824
0.487448
0.488164
0.489073
0.48861
0.488786
0.488874
0.488664
0.127388
0.132443
0.160238
0.155346
0.166664
0.168041
0.183957
0.192666
0.162227
0.18487
0.200873
0.165788
0.179525
0.343855
0.170907
0.088111
0.251735
0.298953
0.260531
0.318315
0.107272
0.0810277
0.0629477
0.0777142
0.5
0.5
0.5
0.5
0.5
0.5
0.5
0.5
0.5
0.5
0.5
0.5
0.5
0.5
0.5
0.5
0.5
0.385267
0.392798
0.385726
0.426858
0.390098
0.38157
0.387968
0.395194
0.385164
0.424952
0.408023
0.492468
0.49481
0.494444
0.490724
0.494696
0.482645
0.483098
0.490843
0.494489
0.490976
0.494539
0.499522
0.499747
0.499416
0.499744
0.499755
0.499604
0.499474
0.499457
0.499415
0.499587
0.499632
0.499532
0.499756
0.499776
0.4997
0.406146
0.372401
0.362715
0.35043
0.345655
0.499973
0.499975
0.499926
0.499965
0.499834
0.499836
0.499959
0.5
0.5
0.5
0.5
0.5
0.5
0.5
0.5
0.5
0.5
0.5
0.5
0.5
0.5
0.5
0.5
0.5
0.5
0.5
0.5
0.5
0.5
0.5
0.5
0.5
0.5
0.5
0.5
0.5
0.5
0.5
0.5
0.5
0.5
0.5
0.5
0.5
0.5
0.5
0.5
0.5
0.5
0.5
0.5
0.5
0.5
0.5
0.5
0.5
0.5
0.5
0.5
0.5
0.499999
0.499986
0.499986
0.499987
0.499986
0.499999
0.499992
0.499997
0.499989
0.499999
0.499992
0.499992
0.499996
0.499992
0.499996
0.499999
0.499989
0.499913
0.499954
0.499949
0.499986
0.499983
0.499943
0.49995
0.499998
0.499998
0.49993
0.499989
0.499989
0.49994
0.499987
0.499998
0.5
0.5
0.5
0.5
0.5
0.5
0.5
0.5
0.5
0.5
0.5
0.5
0.5
0.5
0.5
0.5
0.5
0.5
0.5
0.5
0.5
0.5
0.5
0.5
0.5
0.5
0.5
0.5
0.5
0.5
0.5
0.5
0.5
0.5
0.5
0.5
0.5
0.5
0.5
0.5
0.5
0.5
0.5
0.5
0.5
0.5
0.5
0.5
0.5
0.5
0.5
0.5
0.5
0.5
0.5
0.5
0.5
0.5
0.5
0.5
0.5
0.5
0.5
0.5
0.5
0.5
0.5
0.5
0.489975
0.49048
0.491075
0.489804
0.489152
0.489625
0.485251
0.485172
0.489308
0.490471
0.491152
0.489795
0.483238
0.485294
0.485826
0.486123
0.485674
0.485862
0.498364
0.499042
0.499126
0.499545
0.498824
0.499529
0.498347
0.498976
0.499022
0.499522
0.499398
0.498938
0.499455
0.498304
0.49576
0.496078
0.495376
0.496682
0.495321
0.495252
0.494591
0.496015
0.496361
0.494874
0.494907
0.494646
0.495929
0.49711
0.497112
0.494796
0.496767
0.495294
0.5
0.5
0.5
0.5
0.5
0.5
0.5
0.5
0.5
0.5
0.5
0.5
0.494024
0.49671
0.493428
0.496515
0.493626
0.495062
0.493891
0.49402
0.494645
0.497437
0.497852
0.497623
0.496875
0.496863
0.497827
0.496946
0.498578
0.497744
0.498378
0.497841
0.49656
0.495858
0.493409
0.496769
0.496764
0.497845
0.498216
0.497886
0.49342
0.497753
0.497198
0.497098
0.5
0.5
0.5
0.5
0.5
0.5
0.5
0.5
0.5
0.5
0.5
0.5
0.5
0.5
0.5
0.5
0.5
0.5
0.5
0.499069
0.499034
0.499347
0.498738
0.499161
0.498881
0.499151
0.499507
0.499103
0.499677
0.49891
0.499345
0.499383
0.499404
0.49037
0.490695
0.493157
0.490243
0.491888
0.492795
0.496497
0.49724
0.49646
0.498795
0.497945
0.494619
0.4985
0.498128
0.498188
0.498749
0.498278
0.498333
0.499987
0.499975
0.499972
0.499996
0.499995
0.499979
0.499989
0.499996
0.499995
0.499976
0.499982
0.447618
0.448219
0.44907
0.448508
0.438379
0.425177
0.43089
0.418661
0.450275
0.452153
0.44549
0.427254
0.426467
0.42865
0.424808
0.425021
0.42069
0.451414
0.445243
0.449142
0.446155
0.499958
0.499962
0.499997
0.499989
0.499997
0.499963
0.499959
0.5
0.5
0.499998
0.499995
0.499999
0.5
0.499998
0.5
0.5
0.5
0.496686
0.49628
0.495675
0.49407
0.496663
0.496414
0.493702
0.493812
0.495955
0.49406
0.494245
0.460303
0.460436
0.460444
0.423959
0.454182
0.402009
0.391038
0.426414
0.449383
0.453389
0.408936
0.418143
0.418249
0.499936
0.499935
0.499968
0.499969
0.499919
0.499926
0.499898
0.499894
0.499977
0.499973
0.499928
0.499933
0.499982
0.499908
0.499984
0.499974
0.499937
0.49995
0.499977
0.499982
0.499977
0.499937
0.499876
0.499947
0.499762
0.499944
0.499959
0.499766
0.49973
0.499942
0.499835
0.499752
0.499881
0.499891
0.499554
0.499931
0.499831
0.499436
0.499663
0.499912
0.499959
0.499945
0.499037
0.497708
0.495816
0.496278
0.499096
0.498025
0.49606
0.495427
0.498807
0.498865
0.498959
0.49908
0.499018
0.498036
0.498928
0.498733
0.498916
0.498049
0.495595
0.496086
0.496629
0.495816
0.492412
0.492794
0.497429
0.496899
0.49694
0.496226
0.497089
0.497013
0.496023
0.492741
0.492128
0.492906
0.496124
0.49644
0.497124
0.493106
0.493977
0.49851
0.498506
0.499058
0.499074
0.499193
0.499259
0.499423
0.499085
0.499088
0.498849
0.49892
0.499335
0.498762
0.498677
0.5
0.5
0.5
0.5
0.5
0.5
0.5
0.5
0.5
0.5
0.499796
0.499801
0.499861
0.499876
0.499527
0.499362
0.499854
0.499902
0.499485
0.499838
0.499735
0.499735
0.499858
0.499328
0.499858
0.499726
0.499256
0.499058
0.499076
0.498633
0.497909
0.497802
0.498442
0.498765
0.498739
0.498242
0.497942
0.498729
0.498802
0.499215
0.499093
0.49832
0.497694
0.497211
0.498633
0.499051
0.498597
0.5
0.5
0.5
0.5
0.5
0.5
0.5
0.5
0.5
0.5
0.5
0.5
0.5
0.5
0.5
0.5
0.407056
0.405636
0.409842
0.413516
0.449889
0.435697
0.464702
0.441731
0.429118
0.436541
0.464491
0.441803
0.431826
0.496509
0.496272
0.496858
0.497599
0.498173
0.497609
0.496282
0.497362
0.497913
0.497622
0.498638
0.497491
0.5
0.5
0.5
0.5
0.5
0.5
0.5
0.5
0.5
0.5
0.5
0.5
0.5
0.5
0.5
0.5
0.5
0.5
0.5
0.494493
0.494238
0.49641
0.496406
0.496406
0.496604
0.496037
0.49518
0.49663
0.49841
0.498411
0.495514
0.498454
0.49793
0.498045
0.498819
0.498971
0.498023
0.498669
0.410617
0.414839
0.421736
0.416034
0.415268
0.418527
0.421839
0.427563
0.428693
0.428812
0.436516
0.436852
0.426914
0.431996
0.433129
0.423701
0.5
0.5
0.5
0.5
0.5
0.5
0.5
0.5
0.5
0.5
0.5
0.5
0.5
0.5
0.5
0.5
0.471676
0.447971
0.477147
0.452125
0.471826
0.435358
0.492471
0.480741
0.494628
0.494652
0.492505
0.479914
0.44961
0.426526
0.471962
0.492401
0.492166
0.492423
0.480011
0.441368
0.5
0.5
0.5
0.5
0.5
0.5
0.5
0.5
0.5
0.5
0.5
0.5
0.5
0.5
0.5
0.5
0.5
0.5
0.5
0.5
0.5
0.5
0.5
0.499999
0.499997
0.499998
0.5
0.499997
0.499997
0.499999
0.499998
0.499999
0.499998
0.499999
0.499998
0.499999
0.5
0.499999
0.499999
0.499999
0.5
0.499999
0.5
0.5
0.5
0.499996
0.499996
0.499994
0.499994
0.499999
0.499999
0.499992
0.499992
0.499995
0.499995
0.499999
0.499993
0.499994
0.499998
0.499996
0.499999
0.499999
0.499998
0.499998
0.49962
0.498405
0.498682
0.499662
0.499517
0.498655
0.498564
0.4993
0.499072
0.498881
0.499676
0.4997
0.499199
0.499311
0.499255
0.499391
0.499991
0.499982
0.499982
0.499976
0.499993
0.49999
0.499975
0.499983
0.499993
0.5
0.5
0.5
0.5
0.5
0.5
0.5
0.5
0.5
0.5
0.5
0.5
0.5
0.5
0.5
0.5
0.5
0.5
0.5
0.5
0.5
0.5
0.5
0.5
0.5
0.5
0.5
0.5
0.5
0.5
0.5
0.5
0.499998
0.5
0.5
0.499999
0.5
0.499999
0.5
0.5
0.5
0.499998
0.499999
0.499999
0.5
0.499999
0.5
0.499999
0.5
0.499999
0.499997
0.499999
0.499999
0.499999
0.499996
0.499987
0.499991
0.499997
0.499997
0.499997
0.499997
0.499991
0.499989
0.499993
0.499985
0.499985
0.499993
0.499992
0.499991
0.499753
0.499828
0.49967
0.499745
0.499665
0.499479
0.499403
0.499667
0.499477
0.499403
0.49857
0.49868
0.498795
0.499013
0.499527
0.498915
0.411747
0.409515
0.408756
0.404783
0.366678
0.379481
0.404958
0.36576
0.365966
0.5
0.5
0.5
0.499994
0.5
0.5
0.5
0.5
0.499994
0.499996
0.499999
0.499995
0.499995
0.499996
0.499985
0.499993
0.499986
0.499997
0.499997
0.499995
0.499983
0.499986
0.499987
0.499997
0.499985
0.499994
0.499997
0.499998
0.5
0.5
0.5
0.5
0.5
0.5
0.5
0.5
0.5
0.5
0.5
0.5
0.5
0.5
0.5
0.5
0.5
0.5
0.5
0.5
0.5
0.5
0.5
0.5
0.5
0.5
0.5
0.5
0.5
0.5
0.5
0.5
0.5
0.5
0.5
0.5
0.499999
0.499999
0.499999
0.5
0.5
0.5
0.5
0.5
0.5
0.5
0.5
0.5
0.5
0.5
0.5
0.5
0.5
0.5
0.5
0.5
0.5
0.5
0.5
0.5
0.5
0.5
0.5
0.5
0.5
0.5
0.5
0.5
0.5
0.5
0.5
0.5
0.5
0.5
0.5
0.5
0.5
0.5
0.5
0.5
0.499907
0.499909
0.499895
0.499902
0.499847
0.499897
0.499909
0.499925
0.499905
0.499859
0.4999
0.499923
0.49994
0.499931
0.499942
0.499935
0.49992
0.499935
0.499948
0.5
0.5
0.5
0.5
0.498518
0.498397
0.499998
0.499997
0.5
0.5
0.499998
0.499999
0.5
0.498702
0.497434
0.499602
0.499998
0.499999
0.499998
0.499998
0.49882
0.499088
0.498135
0.499111
0.498722
0.498378
0.498283
0.496778
0.498974
0.498952
0.498239
0.49897
0.497324
0.497654
0.496845
0.498944
0.498786
0.498967
0.497779
0.338492
0.342042
0.353478
0.361313
0.346851
0.339642
0.315391
0.324941
0.323218
0.341018
0.357339
0.381153
0.380046
0.339028
0.362273
0.374751
0.5
0.5
0.5
0.5
0.5
0.5
0.5
0.5
0.5
0.5
0.5
0.5
0.5
0.5
0.5
0.5
0.5
0.5
0.5
0.5
0.5
0.5
0.5
0.5
0.5
0.5
0.5
0.5
0.5
0.5
0.5
0.5
0.5
0.5
0.5
0.5
0.5
0.5
0.5
0.5
0.5
0.5
0.5
0.5
0.5
0.5
0.5
0.5
0.5
0.5
0.5
0.5
0.5
0.5
0.5
0.5
0.5
0.5
0.5
0.5
0.5
0.5
0.5
0.5
0.499999
0.499999
0.499999
0.499999
0.499999
0.5
0.5
0.5
0.5
0.5
0.5
0.5
0.5
0.5
0.5
0.5
0.5
0.5
0.5
0.5
0.5
0.5
0.5
0.5
0.5
0.5
0.5
0.5
0.5
0.5
0.5
0.5
0.5
0.5
0.5
0.5
0.5
0.5
0.5
0.5
0.5
0.5
0.5
0.5
0.5
0.5
0.5
0.5
0.5
0.5
0.5
0.5
0.5
0.5
0.5
0.5
0.5
0.5
0.5
0.5
0.5
0.5
0.5
0.5
0.5
0.5
0.5
0.5
0.5
0.5
0.5
0.5
0.5
0.5
0.5
0.5
0.5
0.5
0.5
0.5
0.5
0.5
0.5
0.5
0.5
0.5
0.5
0.5
0.5
0.5
0.5
0.5
0.5
0.5
0.5
0.5
0.5
0.5
0.5
0.5
0.5
0.5
0.5
0.5
0.5
0.5
0.5
0.5
0.5
0.5
0.5
0.5
0.5
0.5
0.5
0.5
0.5
0.5
0.5
0.5
0.5
0.5
0.5
0.5
0.5
0.5
0.5
0.5
0.499998
0.499996
0.499999
0.49999
0.499997
0.499997
0.499992
0.49999
0.499998
0.365134
0.363835
0.366333
0.366537
0.5
0.5
0.5
0.5
0.5
0.5
0.5
0.5
0.5
0.5
0.5
0.5
0.5
0.5
0.5
0.5
0.5
0.5
0.5
0.5
0.5
0.5
0.483671
0.491996
0.491443
0.483271
0.483558
0.493089
0.493401
0.491618
0.478275
0.489444
0.481774
0.483275
0.47227
0.476791
0.489137
0.490286
0.499999
0.499999
0.499999
0.499999
0.499994
0.499995
0.499998
0.499997
0.5
0.499998
0.499998
0.5
0.499998
0.499999
0.499995
0.499998
0.5
0.499999
0.499999
0.5
0.499999
0.499999
0.5
0.5
0.5
0.5
0.5
0.5
0.5
0.5
0.5
0.5
0.5
0.5
0.5
0.5
0.5
0.5
0.5
0.5
0.5
0.463705
0.463209
0.462546
0.472361
0.46326
0.46293
0.473498
0.463562
0.464654
0.472103
0.463263
0.451469
0.450311
0.450923
0.450238
0.459799
0.469507
0.47026
0.46486
0.466085
0.470088
0.457736
0.5
0.5
0.5
0.5
0.5
0.5
0.5
0.5
0.5
0.5
0.5
0.5
0.5
0.5
0.5
0.5
0.5
0.5
0.5
0.5
0.5
0.5
0.5
0.5
0.5
0.5
0.5
0.5
0.5
0.5
0.5
0.5
0.5
0.5
0.5
0.5
0.5
0.5
0.5
0.5
0.5
0.5
0.5
0.5
0.5
0.5
0.5
0.5
0.5
0.5
0.452653
0.444712
0.455069
0.444174
0.449845
0.464518
0.461043
0.466689
0.465045
0.47387
0.481155
0.481505
0.465114
0.47595
0.482332
0.474206
0.472701
0.498029
0.497845
0.49952
0.499532
0.499552
0.499582
0.498107
0.498291
0.498283
0.498265
0.499396
0.499255
0.498496
0.49955
0.498973
0.49909
0.499406
0.499299
0.499113
0.499501
0.499495
0.49923
0.492752
0.493466
0.494541
0.493939
0.49446
0.496815
0.497451
0.494633
0.494438
0.498583
0.498459
0.497563
0.496616
0.498358
0.498707
0.498315
0.497546
0.498698
0.449621
0.461177
0.46766
0.461697
0.470679
0.462105
0.446172
0.455485
0.459675
0.456544
0.467405
0.467737
0.459544
0.467696
0.439041
0.45544
0.455525
0.5
0.5
0.5
0.5
0.5
0.5
0.5
0.5
0.5
0.5
0.497179
0.49879
0.495721
0.495763
0.499676
0.498919
0.496702
0.496492
0.496494
0.496819
0.497666
0.499078
0.497028
0.499748
0.49945
0.497808
0.499096
0.499194
0.5
0.5
0.5
0.5
0.5
0.5
0.5
0.5
0.5
0.5
0.5
0.5
0.5
0.499296
0.499279
0.499214
0.499204
0.498327
0.498944
0.49892
0.499012
0.496388
0.496424
0.497846
0.497902
0.498366
0.497834
0.499374
0.499846
0.498504
0.499569
0.4999
0.499568
0.498859
0.499366
0.49977
0.499504
0.49977
0.499365
0.499242
0.499787
0.498879
0.202226
0.220644
0.199772
0.195073
0.240356
0.22518
0.269992
0.289929
0.183554
0.181432
0.250855
0.276259
0.261151
0.260266
0.247292
0.301065
0.289346
0.258119
0.5
0.5
0.5
0.5
0.5
0.5
0.5
0.5
0.5
0.5
0.5
0.5
0.5
0.5
0.5
0.5
0.5
0.5
0.5
0.5
0.5
0.5
0.5
0.5
0.5
0.5
0.5
0.5
0.5
0.5
0.5
0.5
0.284129
0.286985
0.312838
0.303671
0.272582
0.272998
0.344356
0.368012
0.418053
0.296414
0.286054
0.306947
0.397217
0.357378
0.407422
0.38931
0.397342
0.261216
0.5
0.5
0.5
0.5
0.5
0.5
0.5
0.5
0.5
0.5
0.5
0.5
0.5
0.5
0.5
0.5
0.5
0.5
0.5
0.499884
0.49988
0.499933
0.499921
0.499792
0.499784
0.499716
0.499674
0.499724
0.499735
0.499814
0.499839
0.499883
0.499872
0.499706
0.499696
0.499708
0.499802
0.5
0.5
0.5
0.5
0.5
0.5
0.5
0.5
0.5
0.5
0.5
0.5
0.5
0.5
0.5
0.5
0.5
0.5
0.5
0.5
0.5
0.5
0.5
0.5
0.5
0.5
0.5
0.5
0.5
0.5
0.5
0.5
0.5
0.5
0.5
0.5
0.5
0.5
0.5
0.5
0.5
0.5
0.5
0.5
0.5
0.5
0.5
0.5
0.5
0.5
0.5
0.5
0.5
0.5
0.5
0.5
0.5
0.5
0.5
0.5
0.5
0.5
0.5
0.5
0.5
0.5
0.5
0.5
0.5
0.5
0.5
0.5
0.5
0.5
0.5
0.5
0.5
0.5
0.5
0.5
0.499951
0.499946
0.499956
0.499987
0.499983
0.499975
0.499954
0.499975
0.499968
0.49998
0.499989
0.49996
0.49998
0.499984
0.499973
0.49993
0.499921
0.499907
0.49996
0.499932
0.499938
0.499922
0.499903
0.499945
0.499886
0.499952
0.499905
0.499933
0.499986
0.499991
0.49999
0.499974
0.499951
0.5
0.5
0.5
0.5
0.5
0.5
0.5
0.5
0.5
0.5
0.5
0.5
0.5
0.5
0.5
0.494775
0.495363
0.495703
0.495723
0.494259
0.49552
0.493388
0.49213
0.493135
0.5
0.5
0.5
0.5
0.5
0.5
0.5
0.5
0.5
0.5
0.5
0.5
0.5
0.5
0.5
0.5
0.5
0.5
0.5
0.5
0.5
0.5
0.5
0.5
0.5
0.5
0.5
0.5
0.5
0.5
0.5
0.5
0.5
0.5
0.5
0.5
0.5
0.5
0.5
0.5
0.5
0.5
0.5
0.5
0.5
0.5
0.5
0.5
0.5
0.5
0.5
0.5
0.5
0.5
0.5
0.5
0.5
0.5
0.5
0.5
0.5
0.5
0.5
0.5
0.5
0.5
0.5
0.5
0.499265
0.499202
0.499019
0.499128
0.499732
0.499518
0.499747
0.499749
0.499031
0.499825
0.499449
0.49926
0.49935
0.499922
0.499944
0.499476
0.49976
0.499703
0.499905
0.499945
0.499954
0.499945
0.499935
0.499468
0.499938
0.499731
0.499998
0.499997
0.499997
0.499997
0.5
0.5
0.5
0.499995
0.499995
0.499995
0.499995
0.499998
0.499996
0.499999
0.499999
0.499997
0.499997
0.499998
0.5
0.5
0.5
0.5
0.5
0.5
0.5
0.5
0.5
0.5
0.5
0.5
0.5
0.5
0.5
0.5
0.5
0.5
0.5
0.5
0.5
0.5
0.5
0.5
0.5
0.5
0.495092
0.496394
0.495798
0.495124
0.495568
0.49585
0.495213
0.495153
0.495076
0.494836
0.494928
0.495312
0.494819
0.498103
0.499339
0.499495
0.499283
0.499078
0.498102
0.49776
0.498198
0.499465
0.499144
0.499119
0.499025
0.499207
0.499178
0.499146
0.499464
0.499807
0.499715
0.499113
0.499294
0.499826
0.499844
0.499852
0.499849
0.499861
0.499696
0.499717
0.498912
0.499608
0.499721
0.499499
0.499989
0.499995
0.499985
0.499993
0.49999
0.499997
0.49999
0.499976
0.49999
0.499996
0.499993
0.499989
0.499991
0.499976
0.453011
0.452837
0.463642
0.46852
0.456808
0.458867
0.450424
0.450408
0.457599
0.456812
0.449107
0.5
0.5
0.5
0.5
0.5
0.5
0.5
0.5
0.5
0.5
0.5
0.5
0.5
0.5
0.5
0.5
0.5
0.5
0.5
0.5
0.5
0.5
0.5
0.5
0.5
0.5
0.5
0.5
0.5
0.5
0.5
0.5
0.5
0.5
0.5
0.5
0.5
0.5
0.5
0.5
0.5
0.5
0.5
0.5
0.5
0.5
0.5
0.5
0.5
0.5
0.5
0.5
0.5
0.5
0.5
0.5
0.5
0.5
0.5
0.5
0.5
0.5
0.5
0.5
0.5
0.5
0.5
0.5
0.5
0.5
0.5
0.5
0.5
0.5
0.5
0.5
0.5
0.5
0.5
0.5
0.5
0.5
0.5
0.5
0.5
0.5
0.5
0.5
0.5
0.5
0.5
0.5
0.5
0.5
0.5
0.5
0.5
0.5
0.5
0.499873
0.499879
0.499864
0.499865
0.499948
0.49992
0.499941
0.499892
0.49999
0.49999
0.49997
0.499989
0.499981
0.499968
0.49999
0.49999
0.499948
0.49997
0.493858
0.485196
0.493338
0.492209
0.49345
0.487876
0.496157
0.496636
0.4878
0.496363
0.490728
0.484691
0.490739
0.490636
0.490715
0.49273
0.496609
0.49324
0.490416
0.496426
0.485964
0.490803
0.494521
0.496461
0.492357
0.486491
0.486591
0.499741
0.499693
0.499728
0.499794
0.499514
0.491604
0.488734
0.491318
0.496643
0.485409
0.497925
0.488345
0.435993
0.447213
0.474283
0.444403
0.431646
0.481363
0.458405
0.497322
0.447202
0.448772
0.471428
0.463765
0.436561
0.479922
0.473398
0.443526
0.434035
0.475396
0.482361
0.45527
0.462713
0.480877
0.47733
0.447122
0.442789
0.463811
0.5
0.5
0.5
0.5
0.5
0.5
0.5
0.5
0.5
0.5
0.5
0.5
0.5
0.5
0.5
0.5
0.5
0.5
0.5
0.5
0.499959
0.499953
0.499973
0.499978
0.499977
0.499982
0.499976
0.49997
0.49995
0.499962
0.499978
0.499976
0.499976
0.499977
0.499968
0.5
0.499963
0.499956
0.5
0.499998
0.499925
0.499991
0.5
0.499972
0.499961
0.499923
0.5
0.499999
0.5
0.5
0.5
0.5
0.485671
0.476226
0.477255
0.457267
0.449231
0.468934
0.470143
0.493884
0.448192
0.470458
0.491235
0.489529
0.491259
0.489027
0.479306
0.495131
0.458956
0.470687
0.495823
0.48937
0.494387
0.497016
0.5
0.5
0.5
0.5
0.5
0.5
0.5
0.5
0.5
0.5
0.5
0.5
0.5
0.5
0.5
0.5
0.5
0.5
0.5
0.5
0.5
0.5
0.5
0.5
0.5
0.5
0.5
0.5
0.5
0.5
0.5
0.5
0.5
0.5
0.5
0.437155
0.414405
0.436173
0.403649
0.414567
0.4125
0.418925
0.445197
0.499999
0.499998
0.5
0.5
0.5
0.499999
0.499999
0.499998
0.5
0.5
0.499998
0.499999
0.5
0.5
0.5
0.5
0.5
0.5
0.5
0.5
0.5
0.5
0.5
0.5
0.5
0.5
0.5
0.5
0.5
0.5
0.5
0.5
0.5
0.5
0.5
0.5
0.5
0.499999
0.5
0.499999
0.499999
0.5
0.5
0.499999
0.499999
0.499999
0.499999
0.499999
0.499825
0.499879
0.499904
0.499939
0.499874
0.499912
0.49993
0.499933
0.49994
0.499949
0.499838
0.499942
0.499951
0.499943
0.499772
0.499843
0.499916
0.499932
0.499936
0.499943
0.499776
0.499933
0.5
0.5
0.5
0.5
0.5
0.5
0.5
0.5
0.5
0.5
0.5
0.5
0.5
0.5
0.5
0.5
0.390156
0.404226
0.41206
0.407394
0.395753
0.398702
0.418462
0.425151
0.423072
0.419228
0.435412
0.43464
0.407797
0.419117
0.414444
0.4267
0.404914
0.401865
0.499845
0.496589
0.496996
0.498823
0.498723
0.498628
0.495971
0.496264
0.499862
0.49986
0.498744
0.49864
0.49923
0.499748
0.499725
0.499701
0.5
0.5
0.5
0.5
0.5
0.5
0.5
0.5
0.5
0.5
0.5
0.5
0.5
0.5
0.5
0.5
0.5
0.5
0.5
0.5
0.499999
0.499999
0.499995
0.499996
0.5
0.5
0.5
0.5
0.499998
0.499998
0.5
0.5
0.5
0.5
0.5
0.5
0.498493
0.498467
0.498672
0.498539
0.499357
0.498662
0.499584
0.498665
0.499581
0.499828
0.499662
0.499759
0.499779
0.499732
0.499638
0.499739
0.499776
0.499502
0.499652
0.499884
0.499765
0.499818
0.499496
0.49963
0.499855
0.499882
0.499577
0.499703
0.499859
0.499998
0.499995
0.499985
0.49999
0.49999
0.499992
0.499992
0.499998
0.499995
0.499998
0.499997
0.499997
0.499994
0.499986
0.499986
0.499996
0.499993
0.49999
0.499907
0.499924
0.49996
0.499957
0.499917
0.499945
0.499901
0.499928
0.499936
0.5
0.5
0.499999
0.5
0.5
0.5
0.5
0.5
0.499999
0.499996
0.499996
0.5
0.5
0.5
0.5
0.5
0.5
0.5
0.5
0.5
0.5
0.5
0.5
0.5
0.5
0.5
0.5
0.5
0.5
0.5
0.5
0.5
0.5
0.5
0.5
0.5
0.5
0.5
0.5
0.5
0.5
0.5
0.5
0.5
0.5
0.5
0.5
0.5
0.5
0.5
0.5
0.499668
0.499569
0.499514
0.499671
0.4999
0.4999
0.499926
0.499938
0.499615
0.499843
0.499894
0.499868
0.499905
0.499844
0.499868
0.5
0.5
0.5
0.5
0.5
0.5
0.5
0.5
0.5
0.5
0.5
0.5
0.5
0.5
0.5
0.5
0.5
0.46105
0.458948
0.465579
0.467771
0.486962
0.486449
0.473021
0.472819
0.489402
0.490888
0.465725
0.488909
0.490009
0.485824
0.489835
0.486641
0.489666
0.490705
0.491952
0.49299
0.493212
0.491429
0.488637
0.487709
0.477978
0.480413
0.479454
0.473927
0.489125
0.488492
0.487431
0.486618
0.489066
0.483098
0.475954
0.476937
0.477031
0.5
0.5
0.5
0.5
0.5
0.5
0.5
0.5
0.5
0.5
0.5
0.5
0.5
0.5
0.5
0.5
0.499803
0.499745
0.499895
0.499835
0.499797
0.499601
0.499645
0.499625
0.49972
0.499808
0.499851
0.499648
0.499908
0.499884
0.499634
0.499821
0.499814
0.499828
0.5
0.5
0.5
0.5
0.5
0.5
0.5
0.5
0.5
0.5
0.5
0.5
0.5
0.5
0.5
0.5
0.5
0.5
0.5
0.5
0.5
0.5
0.5
0.5
0.5
0.5
0.5
0.5
0.5
0.5
0.5
0.5
0.5
0.5
0.5
0.5
0.5
0.5
0.5
0.5
0.5
0.5
0.5
0.5
0.5
0.5
0.5
0.499801
0.499809
0.499806
0.499827
0.498974
0.4992
0.499338
0.498888
0.49892
0.499704
0.499596
0.499801
0.499818
0.499096
0.499567
0.499633
0.498049
0.498054
0.496951
0.497372
0.497364
0.495491
0.495473
0.493217
0.493247
0.496706
0.494104
0.49408
0.493537
0.5
0.5
0.5
0.5
0.5
0.5
0.5
0.5
0.5
0.5
0.5
0.5
0.5
0.5
0.5
0.499903
0.499925
0.499964
0.499919
0.5
0.5
0.5
0.5
0.5
0.5
0.5
0.5
0.5
0.5
0.499983
0.5
0.5
0.5
0.5
0.5
0.5
0.5
0.5
0.5
0.5
0.5
0.5
0.5
0.5
0.5
0.5
0.5
0.499783
0.499762
0.499672
0.499676
0.499802
0.499839
0.499756
0.49965
0.499632
0.499716
0.499571
0.499495
0.499793
0.499618
0.499478
0.499625
0.49956
0.499403
0.43946
0.434356
0.415697
0.417524
0.438473
0.433599
0.439599
0.41448
0.418521
0.422758
0.414559
0.416375
0.438777
0.437349
0.435542
0.427542
0.420374
0.4161
0.408717
0.416066
0.49998
0.49997
0.49998
0.499975
0.499981
0.495201
0.495212
0.495173
0.495188
0.497132
0.497124
0.497539
0.497623
0.493619
0.493989
0.494224
0.496115
0.497292
0.496454
0.499231
0.499239
0.499768
0.499789
0.499225
0.49923
0.499774
0.499745
0.499798
0.499471
0.498285
0.5
0.5
0.5
0.5
0.5
0.5
0.5
0.5
0.5
0.5
0.5
0.499766
0.499726
0.499779
0.499778
0.499786
0.499772
0.499728
0.499816
0.499786
0.499762
0.499775
0.499746
0.499888
0.499886
0.499826
0.5
0.5
0.5
0.5
0.5
0.5
0.5
0.5
0.5
0.5
0.5
0.5
0.5
0.5
0.5
0.5
0.5
0.5
0.5
0.5
0.5
0.49995
0.49995
0.499959
0.499958
0.499965
0.499974
0.5
0.5
0.5
0.5
0.5
0.5
0.5
0.499992
0.5
0.499997
0.499992
0.5
0.5
0.5
0.5
0.5
0.5
0.5
0.5
0.5
0.5
0.5
0.5
0.5
0.5
0.5
0.5
0.5
0.5
0.5
0.5
0.5
0.5
0.5
0.5
0.5
0.5
0.5
0.5
0.5
0.5
0.5
0.5
0.5
0.5
0.499996
0.499998
0.499997
0.499998
0.499992
0.499991
0.5
0.499991
0.499991
0.499999
0.499999
0.499992
0.499991
0.499999
0.5
0.5
0.5
0.5
0.5
0.5
0.5
0.5
0.5
0.5
0.5
0.498693
0.498499
0.497095
0.499169
0.498379
0.497868
0.498279
0.497323
0.497058
0.497941
0.498356
0.498784
0.498586
0.499153
0.498567
0.5
0.5
0.5
0.5
0.5
0.5
0.5
0.5
0.5
0.5
0.5
0.5
0.5
0.5
0.5
0.5
0.5
0.5
0.499891
0.499857
0.499921
0.49992
0.49993
0.499779
0.499719
0.499761
0.49993
0.499924
0.499856
0.499975
0.49996
0.499762
0.499835
0.499726
0.499739
0.499697
0.499976
0.499959
0.499975
0.5
0.5
0.5
0.5
0.5
0.5
0.5
0.5
0.5
0.5
0.5
0.5
0.5
0.5
0.5
0.5
0.5
0.5
0.5
0.5
0.5
0.5
0.5
0.5
0.5
0.5
0.5
0.5
0.5
0.5
0.5
0.5
0.5
0.5
0.5
0.5
0.5
0.5
0.5
0.5
0.371209
0.349576
0.387498
0.381555
0.321746
0.34202
0.33156
0.336261
0.33439
0.340095
0.305407
0.365622
0.308281
0.251584
0.225713
0.242144
0.331326
0.4943
0.49326
0.493959
0.494483
0.492748
0.490134
0.492772
0.490838
0.494455
0.49179
0.492628
0.489491
0.493419
0.491145
0.489008
0.5
0.5
0.5
0.5
0.5
0.5
0.5
0.5
0.5
0.5
0.5
0.5
0.5
0.5
0.5
0.5
0.5
0.5
0.5
0.5
0.5
0.5
0.5
0.5
0.5
0.5
0.5
0.5
0.5
0.5
0.5
0.5
0.5
0.5
0.5
0.5
0.5
0.5
0.5
0.5
0.5
0.5
0.5
0.5
0.499996
0.499342
0.499175
0.499101
0.499987
0.499785
0.499997
0.499983
0.499987
0.499987
0.499989
0.499986
0.499986
0.499987
0.499988
0.499972
0.499955
0.499955
0.499937
0.499939
0.499968
0.499968
0.499952
0.499984
0.499956
0.499956
0.499981
0.5
0.5
0.5
0.5
0.5
0.5
0.5
0.5
0.5
0.5
0.5
0.5
0.5
0.5
0.5
0.5
0.5
0.5
0.5
0.5
0.5
0.5
0.5
0.5
0.5
0.5
0.5
0.5
0.5
0.5
0.5
0.499987
0.499984
0.499974
0.499977
0.499974
0.499977
0.499987
0.499975
0.499981
0.499976
0.5
0.5
0.5
0.5
0.5
0.5
0.5
0.5
0.5
0.5
0.5
0.5
0.5
0.5
0.5
0.5
0.5
0.5
0.5
0.5
0.5
0.5
0.5
0.5
0.5
0.5
0.5
0.5
0.5
0.5
0.5
0.5
0.5
0.5
0.5
0.5
0.5
0.5
0.5
0.5
0.5
0.5
0.5
0.5
0.5
0.5
0.5
0.5
0.5
0.5
0.5
0.5
0.5
0.5
0.5
0.5
0.5
0.5
0.5
0.5
0.5
0.5
0.5
0.5
0.5
0.5
0.5
0.5
0.5
0.5
0.5
0.5
0.5
0.5
0.5
0.5
0.5
0.5
0.5
0.5
0.5
0.5
0.5
0.5
0.5
0.5
0.5
0.5
0.5
0.5
0.5
0.5
0.5
0.5
0.5
0.5
0.5
0.5
0.5
0.5
0.5
0.5
0.5
0.5
0.5
0.5
0.5
0.5
0.5
0.5
0.5
0.5
0.5
0.5
0.5
0.5
0.5
0.5
0.5
0.5
0.5
0.5
0.5
0.5
0.5
0.5
0.5
0.5
0.5
0.5
0.499997
0.499996
0.499991
0.499991
0.5
0.499996
0.5
0.499999
0.499997
0.5
0.5
0.5
0.5
0.5
0.5
0.5
0.5
0.5
0.5
0.5
0.5
0.5
0.5
0.5
0.5
0.5
0.5
0.5
0.5
0.5
0.5
0.5
0.5
0.5
0.5
0.5
0.5
0.5
0.5
0.5
0.5
0.5
0.5
0.5
0.5
0.5
0.5
0.5
0.5
0.5
0.5
0.5
0.5
0.5
0.5
0.5
0.5
0.5
0.5
0.5
0.5
0.5
0.5
0.5
0.5
0.5
0.5
0.5
0.5
0.5
0.5
0.5
0.5
0.5
0.5
0.5
0.5
0.5
0.5
0.5
0.5
0.5
0.5
0.5
0.5
0.5
0.5
0.5
0.5
0.5
0.5
0.5
0.5
0.5
0.5
0.5
0.5
0.5
0.5
0.5
0.5
0.5
0.5
0.5
0.5
0.5
0.5
0.5
0.5
0.5
0.5
0.5
0.5
0.5
0.5
0.5
0.5
0.5
0.5
0.5
0.5
0.5
0.5
0.5
0.5
0.5
0.499659
0.499694
0.499806
0.499846
0.499759
0.499924
0.49992
0.499833
0.499939
0.499922
0.499855
0.499852
0.499835
0.499769
0.499674
0.499731
0.499927
0.499819
0.499923
0.499922
0.499922
0.499776
0.499815
0.499694
0.499859
0.499881
0.499856
0.499885
0.499888
0.499863
0.499866
0.499894
0.499889
0.499879
0.499854
0.499869
0.499875
0.5
0.5
0.5
0.5
0.5
0.5
0.5
0.5
0.5
0.5
0.5
0.5
0.5
0.5
0.5
0.5
0.499998
0.499999
0.499999
0.499994
0.499997
0.499994
0.499997
0.499999
0.499999
0.499994
0.499993
0.499997
0.499993
0.499995
0.5
0.5
0.499998
0.499999
0.5
0.5
0.5
0.5
0.499998
0.499999
0.5
0.5
0.5
0.499999
0.5
0.5
0.5
0.499998
0.499999
0.499999
0.499997
0.499997
0.499999
0.499998
0.499997
0.499997
0.49999
0.499993
0.499993
0.499992
0.499997
0.499996
0.499998
0.499998
0.499995
0.499997
0.499998
0.499997
0.499997
0.499997
0.5
0.5
0.5
0.5
0.5
0.5
0.5
0.5
0.5
0.5
0.5
0.5
0.5
0.5
0.5
0.5
0.5
0.5
0.5
0.5
0.5
0.5
0.5
0.5
0.5
0.5
0.5
0.5
0.5
0.5
0.5
0.5
0.5
0.5
0.5
0.5
0.5
0.422379
0.419103
0.424417
0.409943
0.405803
0.404466
0.394276
0.395191
0.391618
0.395394
0.401321
0.390183
0.468934
0.4668
0.49031
0.489681
0.452388
0.441994
0.494098
0.49379
0.494294
0.494307
0.494618
0.49036
0.490974
0.491272
0.306791
0.302001
0.364636
0.393277
0.434637
0.428261
0.438775
0.43259
0.440539
0.397782
0.41312
0.438604
0.425248
0.430258
0.410133
0.429399
0.437496
0.427664
0.0993519
0.114866
0.135699
0.154273
0.142706
0.103584
0.164356
0.188791
0.176994
0.0846136
0.0880734
0.0804077
0.105717
0.100761
0.101889
0.133314
0.146561
0.0960813
0.5
0.5
0.5
0.5
0.5
0.5
0.5
0.5
0.5
0.5
0.5
0.5
0.499999
0.5
0.5
0.5
0.499998
0.499999
0.499998
0.499999
0.499999
0.499999
0.5
0.5
0.499998
0.499998
0.5
0.5
0.5
0.499999
0.499999
0.5
0.499998
0.5
0.5
0.5
0.499998
0.499999
0.499998
0.499999
0.5
0.499996
0.499996
0.499999
0.499997
0.499969
0.49998
0.499981
0.499975
0.499969
0.499994
0.499994
0.499988
0.499999
0.49999
0.49999
0.499996
0.499997
0.5
0.5
0.5
0.499999
0.5
0.5
0.499999
0.499999
0.5
0.5
0.5
0.5
0.5
0.5
0.5
0.340906
0.325052
0.33967
0.377796
0.380507
0.375689
0.382932
0.391327
0.386656
0.370044
0.39805
0.406973
0.403187
0.418577
0.468155
0.467957
0.42124
0.419382
0.400131
0.449018
0.449093
0.417584
0.401231
0.5
0.5
0.5
0.5
0.5
0.5
0.5
0.5
0.5
0.5
0.5
0.5
0.5
0.5
0.495737
0.49104
0.491319
0.488361
0.468472
0.477816
0.463251
0.489734
0.495199
0.496754
0.484162
0.469074
0.496716
0.487056
0.475519
0.488009
0.48279
0.482958
0.4883
0.49443
0.496383
0.488956
0.496876
0.497717
0.492882
0.492161
0.49415
0.497277
0.496728
0.49453
0.495582
0.496248
0.497177
0.497213
0.497277
0.498449
0.49819
0.497759
0.498275
0.497764
0.498383
0.498593
0.498824
0.498825
0.497777
0.498791
0.497923
0.498384
0.497811
0.493794
0.49524
0.494464
0.492233
0.48704
0.487001
0.492919
0.489566
0.490068
0.358
0.3582
0.361849
0.349416
0.349931
0.358294
0.379491
0.383962
0.350742
0.357045
0.361386
0.364918
0.495471
0.495819
0.494828
0.494845
0.494061
0.495484
0.493733
0.493269
0.492579
0.494483
0.493578
0.493712
0.49287
0.493295
0.492958
0.49289
0.499999
0.499999
0.5
0.499999
0.499999
0.499999
0.5
0.5
0.499999
0.5
0.5
0.5
0.5
0.5
0.5
0.499999
0.5
0.5
0.490752
0.490496
0.491547
0.364623
0.499861
0.499672
0.49964
0.475834
0.488971
0.433186
0.192865
0.498948
0.489903
0.499993
0.5
0.5
0.5
0.5
0.5
0.5
0.5
0.5
0.5
0.499975
0.5
0.490808
0.5
0.492735
0.499793
0.499731
0.490066
0.489909
0.498268
0.490084
0.490248
0.495045
0.218015
0.341328
0.434349
0.489378
0.494988
0.305358
0.389757
0.499703
0.499709
0.320743
0.368694
0.4887
0.470723
0.0573785
0.5
0.499783
0.5
0.499839
0.499905
0.102024
0.5
0.148594
0.433182
0.499242
0.49998
0.499997
0.499997
0.499998
0.4231
0.417909
0.5
0.499998
0.387023
0.5
0.499998
0.375446
0.499995
0.499991
0.5
0.300223
0.499993
0.5
0.272588
0.5
0.495102
0.5
0.5
0.5
0.5
0.5
0.5
0.497972
0.499997
0.499997
0.5
0.499991
0.5
0.499998
0.5
0.5
0.5
0.499986
0.5
0.5
0.478678
0.491613
0.5
0.5
0.5
0.499808
0.5
0.397679
0.499994
0.49999
0.483368
0.391377
0.5
0.499978
0.483955
0.38578
0.49997
0.5
0.5
0.484301
0.5
0.499967
0.499952
0.406103
0.5
0.499999
0.5
0.5
0.456566
0.5
0.499808
0.41467
0.5
0.5
0.5
0.5
0.5
0.5
0.5
0.499881
0.5
0.499613
0.5
0.5
0.5
0.499724
0.5
0.5
0.499711
0.5
0.499675
0.5
0.5
0.499656
0.499994
0.5
0.5
0.5
0.5
0.5
0.5
0.5
0.5
0.5
0.5
0.5
0.5
0.5
0.5
0.5
0.5
0.5
0.5
0.5
0.5
0.5
0.5
0.5
0.5
0.5
0.5
0.5
0.5
0.5
0.5
0.5
0.5
0.5
0.5
0.5
0.5
0.5
0.5
0.5
0.5
0.5
0.5
0.5
0.5
0.5
0.5
0.5
0.5
0.5
0.5
0.5
0.5
0.5
0.5
0.5
0.5
0.5
0.5
0.5
0.5
0.5
0.5
0.5
0.5
0.5
0.5
0.5
0.5
0.5
0.5
0.5
0.5
0.5
0.5
0.5
0.499999
0.5
0.5
0.5
0.5
0.5
0.5
0.5
0.5
0.5
0.5
0.5
0.5
0.5
0.5
0.5
0.5
0.5
0.5
0.5
0.5
0.5
0.5
0.5
0.5
0.5
0.5
0.5
0.5
0.5
0.5
0.5
0.5
0.5
0.5
0.5
0.5
0.5
0.5
0.5
0.5
0.5
0.5
0.5
0.5
0.5
0.5
0.5
0.5
0.5
0.5
0.5
0.5
0.5
0.49998
0.499999
0.5
0.5
0.5
0.5
0.5
0.5
0.5
0.5
0.5
0.5
0.5
0.5
0.5
0.5
0.49876
0.498553
0.487807
0.5
0.5
0.5
0.5
0.5
0.5
0.5
0.5
0.499999
0.5
0.499999
0.499999
0.49999
0.278385
0.276481
0.232625
0.5
0.5
0.5
0.5
0.5
0.5
0.5
0.499998
0.499999
0.499999
0.499999