/*--------------------------------*- C++ -*----------------------------------*\
  =========                 |
  \\      /  F ield         | OpenFOAM: The Open Source CFD Toolbox
   \\    /   O peration     | Website:  https://openfoam.org
    \\  /    A nd           | Version:  10
     \\/     M anipulation  |
\*---------------------------------------------------------------------------*/
FoamFile
{
    format      ascii;
    class       volScalarField;
    location    "15";
    object      eff_dif;
}
// * * * * * * * * * * * * * * * * * * * * * * * * * * * * * * * * * * * * * //

dimensions      [0 2 -1 0 0 0 0];

internalField   nonuniform List<scalar> 
75457
(
-0.0357419
-0.0323241
-0.0284381
-0.0257855
-0.0210936
-0.0226551
-0.0316139
-0.0314023
-0.0203675
-0.0148336
-0.0188361
-0.0205067
-0.0200878
-0.0177124
-0.00394966
-0.00441117
-0.00417858
-0.00434945
-0.00476823
-0.00430274
-0.00379907
-0.00447726
-0.00449252
-0.00483616
-0.0046032
-0.00497591
-0.00466244
-0.0006708
-0.000807348
-0.000323474
1.98947e-05
-0.000245423
-0.000408857
-0.000465556
0.000139837
-0.000830638
-0.000699298
-0.00097267
-0.00106818
-0.000217813
-0.000431478
-0.000170334
-0.00062492
-0.0118542
-0.0120537
-0.010792
-0.0109249
-0.0114742
-0.00579284
-0.00653094
-0.00691825
-0.00620634
-0.00630629
-0.00652751
-0.00691562
-0.00696274
-0.00672079
-0.00700193
-0.00620484
-0.0065308
-0.00637688
-0.00611701
0.031092
0.0313597
0.031099
0.0314317
0.031668
0.0316922
0.0313445
0.0313833
0.031654
0.0314419
0.0311719
0.0314318
0.0314202
0.0311011
0.0313091
-0.00835867
-0.00959859
-0.0079582
-0.00959054
-0.01169
-0.00562924
-0.00599873
-0.00802322
-0.0088796
-0.00878703
-0.0086385
-0.00577087
-0.00688166
-0.00569489
-0.00572587
-0.00672964
-0.0059468
-0.00691447
-0.00706367
-0.00709844
-0.00744139
-0.00704051
-0.0068716
-0.00804983
-0.00727537
0.0317576
0.0316466
0.0319081
0.0319244
0.0317906
0.0316412
0.0315603
0.0320121
0.032014
0.0316278
0.0316391
0.0223741
0.0230352
0.0254969
0.0250713
0.0224363
0.0240152
0.0240477
0.0235175
0.0238742
0.0255631
0.025347
0.0258902
0.0264289
0.0251828
0.0246215
0.0234248
0.0258436
0.0248408
0.0139147
0.0138783
0.0132997
0.0141877
0.0137821
0.0153071
0.0149932
0.0148798
0.0148714
0.00802867
0.00757124
0.00813905
0.00768341
0.00711738
0.00762642
0.00765191
0.00670583
-0.00696782
-0.00700645
-0.00640004
-0.0066001
-0.00698512
-0.00664125
-0.00635331
-0.00586511
-0.00432196
-0.0043716
-0.0059059
-0.00563082
-0.0051652
-0.00586995
-0.00474934
0.0164887
0.0180888
0.0183306
0.0176682
0.0180884
0.0143733
0.0157604
0.0173211
0.0163269
0.0172893
0.0146107
0.013296
0.0138894
-0.00932796
-0.00979408
-0.00966668
-0.0098696
-0.00964052
-0.00977141
-0.00910331
-0.00979873
-0.00964061
-0.0098784
-0.00986385
-0.00970458
-0.009628
-0.00974884
-0.0085471
-0.00717489
-0.00965336
-0.00707287
-0.00738627
-0.00899049
0.0120501
0.0128248
0.0114931
0.012262
0.0104888
0.0112919
0.0136338
0.0133425
0.0124516
0.00973364
0.00971123
-0.00758982
-0.00743818
-0.00785128
-0.00781263
-0.00775613
-0.00768638
-0.00752846
-0.00740309
-0.00701997
-0.00783531
-0.00758356
-0.00737049
-0.00772466
-0.00734131
0.0064183
0.00548895
0.00587982
0.00420603
0.00474951
0.00548895
0.00539248
0.00662633
0.00619601
0.00528353
0.00467771
0.0040411
0.0062538
0.00470541
-0.00703184
-0.00709978
-0.00685671
-0.00682317
-0.00711422
-0.00705062
-0.00711855
-0.00708721
-0.0072454
-0.00682174
-0.0070651
-0.00655745
-0.00716894
-0.00723289
-0.00699154
-0.00695884
-0.00710935
-0.0100617
-0.00974872
-0.00978353
-0.00965644
-0.010906
-0.00933711
-0.00933361
-0.00873565
-0.00960922
-0.0100647
-0.00916273
-0.00973635
-0.0123176
-0.0121516
-0.0122333
-0.0123811
-0.0117176
-0.0121573
-0.0125294
-0.012185
-0.0117754
-0.0124989
-0.0121123
-0.0119467
-0.0119907
-0.00469386
-0.0044205
-0.0047418
-0.00413635
-0.00415809
-0.00403511
-0.0038238
-0.00377784
-0.00373917
-0.004274
-0.004571
-0.00445611
-0.00366734
-0.00412039
-0.00403307
-0.000413713
-0.000396802
-0.000223055
-0.000387496
-0.000202256
-0.000361799
-0.000589072
-0.000674549
-0.000163835
-0.000105172
0.000134229
-3.75723e-05
-0.000212589
9.05324e-05
0.000373908
0.0001772
-6.41729e-05
0.000147996
7.90199e-05
4.76741e-05
-9.81131e-05
-0.000149446
-0.004343
-0.00472487
-0.00358206
-0.00371475
-0.00407539
-0.00424129
-0.00472244
-0.00460891
-0.00487207
-0.00511637
-0.00483015
-0.00817015
-0.00833376
-0.00848949
-0.00851467
-0.00845372
-0.00813233
-0.00819602
-0.00860047
-0.00885714
-0.008519
-0.00878516
-0.00785942
-0.00815403
-0.0083679
-0.00846872
-0.00826951
-0.00841461
-0.0162333
-0.0150077
-0.0147199
-0.0163655
-0.0189142
-0.0185817
-0.0182546
-0.0179521
-0.017677
-0.0172572
-0.0186095
-0.00405672
-0.00439509
-0.0051628
-0.00495538
-0.00458216
-0.00488506
-0.00440323
-0.00527772
-0.00512446
-0.00471966
-0.00446128
-0.000218122
-0.000127085
-0.000357242
-0.000450006
-0.000140359
-0.000124869
-0.000409906
-0.000155277
-0.000463876
-0.000570137
-0.000552495
-0.000228112
-0.00045446
-0.000922248
-0.00081701
-0.0054507
-0.00440655
-0.00652398
-0.00552427
-0.00539042
-0.00755082
-0.00791923
-0.00758092
-0.00789506
-0.00792336
-0.00757566
-0.00837212
0.0498608
0.0546353
0.0432935
0.0459201
0.048719
0.0507684
0.0504264
0.0532526
0.0458871
0.050284
0.0485245
0.0495296
0.0456479
0.0500938
0.0443736
0.0458584
0.0477639
0.0428203
0.0346787
0.0342214
0.034984
0.0357152
0.03661
0.0375785
0.0348955
0.0355227
0.0379926
0.0414397
0.0381876
0.0383932
0.0400972
0.0260437
0.0232767
0.0207237
0.0223547
0.0269237
0.0236359
0.0221927
0.0235982
0.023264
0.0213712
0.0286064
0.0285869
0.021735
0.0232714
0.0207509
0.0269157
0.0290283
0.0290894
0.025107
0.025081
0.025749
0.0270453
-0.00895448
-0.00930419
-0.00955973
-0.00953191
-0.00964106
-0.00903921
-0.0091074
-0.00925599
-0.00937928
-0.0090403
-0.00949687
-0.00904828
-0.00921676
-0.00913545
-0.00931832
-0.00928626
-0.0263241
-0.0295738
-0.0153992
-0.0238925
-0.0138775
-0.0209368
-0.0189738
-0.0159453
-0.0139013
-0.019035
-0.0338237
-0.0289958
-0.018377
-0.0263416
-0.0141713
-0.0160689
0.00225552
0.00210044
0.00226537
0.00310514
0.00347276
0.0040816
0.00190602
0.00158
0.00323597
0.00320726
0.00408847
0.00373781
0.00346769
0.00339401
0.00322944
0.00257633
0.0018431
0.00264924
0.0338152
0.0378545
0.0364192
0.0330213
0.0343419
0.0370956
0.0406278
0.0397024
0.0346033
0.0405791
0.0422732
0.0405374
0.0366598
0.0334345
0.0342267
0.0352565
0.026943
0.0262982
0.0268002
0.0265721
0.0257312
0.0275089
0.0280849
0.0274685
0.0268378
0.027783
0.027224
0.026406
0.0272593
0.025684
0.0263662
0.0278909
0.0283688
0.0124629
0.0123106
0.0120323
0.0123983
0.0123929
0.0124473
0.0125269
0.0126011
0.0126344
0.0124837
0.0121296
0.0122037
0.012705
0.0123569
0.0124704
0.0117615
0.0117624
-0.00432111
-0.00537114
-0.0070444
-0.00612375
-0.00500208
-0.00517077
-0.0044545
-0.00445304
-0.00560182
-0.00527191
-0.00686666
-0.00710733
-0.00556841
-0.00420114
-0.00657019
-0.00555753
-0.00548307
-0.00638453
-0.00378782
-0.00389468
-0.0037609
-0.00372214
-0.00307663
-0.00345227
-0.00353969
-0.00357625
-0.00307823
-0.00330176
-0.00342135
-0.00302578
-0.00296228
-0.00323238
-0.00621197
-0.00573037
-0.00675526
-0.00759965
-0.00761933
-0.00703412
-0.00664476
-0.00643853
-0.00632671
-0.00748183
-0.00747415
-0.00726779
-0.00671529
-0.00620284
-0.00651103
-0.00725425
-0.00747609
-0.00762618
0.0214331
0.0172017
0.0180045
0.0247508
0.0210757
0.0152251
0.0181406
0.0182931
0.0147884
0.0231256
0.0182961
0.0154238
-0.00908816
-0.00890007
-0.00857739
-0.00862037
-0.00896928
-0.00860144
-0.00755689
-0.00793661
-0.00865431
-0.00876968
-0.0086826
-0.00786839
-0.00792352
-0.00840235
-0.00857109
-0.00833201
-0.00515656
-0.00566085
-0.00470808
-0.0050263
-0.0060431
-0.00600792
-0.00574904
-0.00458638
-0.00457317
-0.0046384
-0.00457491
-0.00569708
-0.0059694
-0.00470798
-0.00432874
-0.00543687
0.00483694
0.00407941
0.00341628
0.00662429
0.00750762
0.00509031
0.00579629
0.00258111
0.00414502
0.00483826
0.00641797
0.00534039
0.00639161
0.00720171
0.00693218
0.00387
0.00397658
0.0052604
0.00336484
-0.00244411
-0.00145552
-0.00233991
-0.00399026
-0.00306128
-0.00192426
-0.00380734
-0.00335182
-0.0023904
-0.00282155
-0.00244926
-0.00381765
-0.00256993
-0.00224528
-0.000909721
-0.000719869
-0.00096445
-0.00140809
-0.00117235
-0.00115417
-0.00114484
-0.00105208
-0.00143042
-0.000952146
-0.00144168
-0.000966207
-0.00180537
-0.000807258
-0.000724991
-0.00100426
-0.000788289
-0.00113003
-0.00362701
-0.00423964
-0.00330049
-0.00191915
-0.00239164
-0.00605513
-0.00355028
-0.00321963
-0.00323309
-0.00431805
-0.00575122
-0.00772658
-0.00802829
-0.00823566
-0.00805744
-0.00919862
-0.00985607
-0.00921422
-0.0101834
-0.00708
-0.00688647
-0.00957334
-0.010922
-0.0105431
-0.00966167
-0.00939186
-0.0107718
-0.00930586
-0.00908945
-0.00981869
-0.00990286
-0.00846299
-0.0097842
-0.00981516
-0.00951223
-0.00969106
-0.00949059
-0.00968451
-0.00975144
-0.00944977
-0.0092763
-0.00946959
-0.0096752
-0.00945545
-0.00950221
-0.00944828
-0.00954686
-0.00946353
-0.0094792
-0.0075525
-0.00795793
-0.00897131
-0.00895817
-0.00795516
-0.00840918
-0.00890324
-0.00902217
-0.00822443
-0.0087411
-0.00812532
-0.00378989
-0.00432022
-0.00270307
-0.00207971
-0.00241766
-0.00212317
-0.00228712
-0.00113276
-0.00228436
-0.002487
-0.00227914
-0.0023403
-0.00157526
-0.0027462
-0.00254293
-0.00250191
-0.00282902
-0.00273161
-0.00212851
-0.00265972
-0.00241831
-0.00285459
-0.002828
-0.00235005
-0.00237738
-0.00254761
-0.00213285
-0.0025074
-0.00232856
-0.0020999
-0.00237535
-0.00206205
-0.00232298
-0.00245993
-0.00212993
-0.00589046
-0.00610562
-0.00599808
-0.00593483
-0.00554309
-0.00509207
-0.00599183
-0.00480201
-0.0056169
-0.00442222
-0.00512381
-0.00551304
-0.00577987
-0.0052823
-0.00514153
-0.00655756
-0.00552739
-0.00492294
-0.00468051
-0.00464573
-0.0076768
-0.00790864
-0.00812365
-0.0080443
-0.00709546
-0.00732696
-0.00807841
-0.00808765
-0.00786853
-0.00669243
-0.00702731
-0.00696121
-0.00667295
-0.00736594
-0.00721126
-0.00759118
-0.00649956
-0.00680531
-0.0074544
-0.00755624
-0.00668566
-0.00692048
-0.00639457
-0.00747684
-0.0066886
-0.00739537
-0.00690473
-0.00808472
-0.00627609
-0.00610011
-0.00630375
-0.00690581
-0.00744151
-0.00708214
-0.0076523
-0.00672881
-0.00649511
-0.00675924
-0.00667782
-0.00740306
-0.00697452
-0.00817674
-0.00758166
-0.00839989
-0.00918503
-0.00874502
-0.00867734
-0.00813665
-0.00826395
-0.00912871
-0.00899195
-0.00955007
-0.00860284
0.0223452
0.0228898
0.0238419
0.0228158
0.0236225
0.022375
0.0234107
0.0222428
0.022813
0.0238149
-0.00939272
-0.00917999
-0.00885707
-0.00891504
-0.00949382
-0.00946194
-0.00894925
-0.00912178
-0.00947534
-0.00883174
-0.00931108
-0.009102
-0.0091031
-0.00950971
-0.00912094
-0.00941978
-0.00947981
-0.00938332
-0.00882522
-0.00970485
-0.00944779
-0.0091641
-0.00985747
-0.00867388
-0.00948037
-0.00862191
-0.00843887
-0.00944577
-0.0096943
-0.00855129
-0.00954074
-0.00958826
-0.009128
-0.00879632
-0.00979847
-0.00911442
-0.00910781
0.0119044
0.0123088
0.0130122
0.0124308
0.0120974
0.013236
0.00979487
0.0113758
0.0116037
0.0112641
0.0105545
0.0126653
0.0121405
0.0126787
0.0117906
0.0113541
-0.0130963
-0.0141794
-0.0132594
-0.012628
-0.012835
-0.0108838
-0.0114053
-0.0121167
-0.0129373
-0.013616
-0.00973973
-0.0112189
-0.0122054
-0.0113204
-0.01235
-0.0104371
-0.0101489
-0.0101674
-0.0112183
-0.0113244
-0.0120152
-0.0103884
-0.00989305
-0.00967055
-0.0108114
0.012478
0.0114686
0.0111097
0.0111829
0.0112292
0.00975279
0.00943156
0.00884811
0.00889866
0.00945895
0.00958535
0.00866936
0.0104175
0.00952572
0.0112233
0.0113293
0.00938848
0.0104967
0.0101091
-0.00913707
-0.00918128
-0.00967963
-0.00918741
-0.0105479
-0.00938643
-0.00893215
-0.00959493
-0.00953634
-0.0091736
-0.00903631
-0.00977475
-0.00991005
-0.0104013
-0.00990117
-0.00922854
-0.00910434
-0.0100327
-0.00975606
-0.00646029
-0.00761407
-0.00718108
-0.00682698
-0.00660283
-0.00722809
-0.00636443
-0.00593846
-0.00725644
-0.00702228
-0.00726116
-0.00674676
-0.00760814
-0.00729668
-0.0076512
-0.00756649
0.021601
0.022162
0.0214772
0.0212777
0.0225147
0.0234001
0.0231899
0.0222612
0.0222776
0.0231142
0.0232849
0.022362
0.0232319
0.0237715
0.0244477
0.0238878
-0.0112818
-0.013216
-0.00948581
-0.00937981
-0.0144059
-0.0172976
-0.00635288
-0.00744742
-0.0101181
-0.0126828
-0.00953385
-0.0102017
-0.0117925
-0.0170626
-0.015298
-0.00795051
-0.0129263
-0.00990815
-0.0133943
-0.015847
0.0583033
0.0523492
0.0480179
0.0476822
0.0567813
0.0580771
0.0515849
0.0563922
0.0505758
0.0525723
0.0501524
0.0505973
0.0474162
0.0472813
0.0529986
0.0208228
0.0195108
0.0241492
0.0258293
0.0236671
0.0205973
0.0259612
0.0225142
0.024977
0.0282395
0.0271768
0.0284084
0.0301315
0.0279406
-0.0140692
-0.014809
-0.0143563
-0.0151065
-0.0132196
-0.0134881
-0.0118754
-0.0107482
-0.0130658
-0.0130089
-0.0112075
-0.0107447
-0.0134995
-0.0118011
-0.0114733
-0.0120975
-0.00524264
-0.0049561
-0.00502644
-0.0051722
-0.00494897
-0.00525858
-0.00490403
-0.00524415
-0.00541956
-0.00477219
-0.00482023
-0.00477062
-0.00534634
-0.00516805
-0.00484713
-0.0050371
-0.00497834
-0.00531618
-0.00511961
-0.0100656
-0.0101057
-0.00971167
-0.0104132
-0.0105547
-0.0104616
-0.00979525
-0.0104917
-0.0104025
-0.00899277
-0.00958474
-0.0093964
-0.00991002
-0.00961079
-0.0107208
-0.0104219
-0.00898132
-0.00939354
-0.00914334
-0.00922139
-0.00889061
-0.00896006
-0.00941427
-0.00888245
-0.00901544
0.0305682
0.0297359
0.0297954
0.0302468
0.0304217
0.0300241
0.029806
0.0298431
0.0305524
0.0303465
0.0304075
0.0301549
0.0302448
0.030021
0.0303411
0.0304035
0.0304229
0.0302136
0.0298626
0.0304946
-0.00641883
-0.00723128
-0.00635778
-0.00688377
-0.00636819
-0.00604354
-0.00619794
-0.00697437
-0.00598005
-0.00629509
-0.00650342
-0.00668554
-0.00432272
-0.00440535
-0.00399967
-0.00385456
-0.00366574
-0.00438284
-0.00437661
-0.00451395
-0.00427587
-0.00383924
-0.00382188
-0.00413058
-0.00417497
-0.00380842
-0.00395488
-0.0039045
-0.00407716
-0.00393554
-0.00319683
-0.00301877
-0.0033025
-0.00301677
-0.0031618
-0.00354535
-0.00360628
-0.00376238
-0.00381676
-0.0030793
-0.00353007
-0.00319171
-0.00385528
-0.00371605
-0.00335719
-0.00318194
-0.00387534
-0.00355128
-0.00313058
-0.00233391
-0.00242626
-0.00259137
-0.00187967
-0.00221578
-0.001943
-0.00194303
-0.00269369
-0.0022848
-0.0027696
-0.00273226
-0.00192452
-0.00195534
-0.00210484
-0.002795
-0.00274849
-0.00637105
-0.00636216
-0.00681658
-0.00686558
-0.00681859
-0.00626911
-0.00641876
-0.00736471
-0.00703904
-0.00938952
-0.00913715
-0.00923393
-0.00937048
-0.00946487
-0.00949372
-0.00934023
-0.00962211
-0.0093159
-0.00915449
-0.00947596
-0.00927863
-0.00407423
-0.00391266
-0.0040738
-0.00407995
-0.00400898
-0.00421566
-0.00415273
-0.00434234
-0.00435124
-0.00414249
-0.00461653
-0.00454687
-0.00449195
-0.00459813
-0.00442757
-0.00458908
0.0309408
0.0311426
0.0308796
0.0306149
0.0302616
0.0303272
0.029859
0.0298026
0.0300799
0.0306183
-0.00806861
-0.00779866
-0.0080393
-0.00780949
-0.00815398
-0.00804054
-0.00830433
-0.00828398
-0.00849059
-0.00849325
-0.00821714
-0.00801948
-0.00823562
-0.00867486
-0.00858557
-0.00835919
-0.00826598
-0.00820434
-0.0050568
-0.00535343
-0.00497529
-0.00504842
-0.00499106
-0.00498529
-0.00520911
-0.00500484
-0.00514897
-0.00556614
-0.00532774
-0.00537909
-0.0051498
-0.00532851
-0.00491641
-0.00501322
-0.00521409
-0.00500808
0.00904077
0.00842512
0.0078457
0.00882012
0.00700556
0.00644103
0.00944609
0.00891845
0.0076079
0.00912837
0.0081509
0.00723651
0.00801065
0.00804504
0.0308578
0.0307564
0.0306341
0.0304614
0.0309105
0.0305016
0.0303209
0.0303554
0.0306633
0.0304792
0.0306536
0.0307782
0.0303487
0.0303159
0.0302051
0.0302474
0.030627
0.0304223
0.0305692
0.0303359
0.0436298
0.0422788
0.0354223
0.0385131
0.0280567
0.0323964
0.0178876
0.0336256
0.0335882
0.0309548
0.0367148
0.0268307
0.0384836
0.043652
0.0394468
0.046975
0.0285564
0.0398199
0.0353124
-0.00883903
-0.00944696
-0.00573407
-0.00443014
-0.00989382
-0.0121877
-0.0120599
-0.0144038
-0.00542343
-0.00546892
-0.0164453
-0.0130785
-0.00755962
-0.0115166
-0.0132257
-0.00834793
-0.00865797
-0.0138192
-0.0108217
-0.0108717
-0.000655848
-0.00132123
-0.0011626
-0.00124719
-0.00159529
-0.000827043
-0.00214809
-0.0013035
-0.00150615
-0.00152395
-0.00136206
-0.00132871
-0.00200642
-0.000999569
-0.00212497
-0.00217063
-0.00194701
-0.00193657
-0.00105206
-0.0181745
-0.0184672
-0.0191633
-0.0183865
-0.0185048
-0.0188483
-0.0172461
-0.0186267
-0.0191938
-0.0167622
-0.0172035
-0.0169989
-0.0175928
-0.0183726
-0.0177899
-0.0180971
0.0325874
0.0325382
0.0324049
0.0324814
0.0327534
0.0327705
0.0326477
0.0326761
0.0324866
0.0323514
0.0328693
0.0326455
0.0328101
0.0328053
0.0324308
0.0323527
0.0325198
0.0326899
0.0328209
0.0324174
0.000231498
8.2035e-05
0.000645572
0.00106398
-0.0018706
-0.0019542
-0.0023842
-0.00324235
-0.00114796
0.000244965
0.000620382
-0.00187222
-0.00221632
-0.00274371
-0.00347526
-0.00335956
-0.00104036
-0.00285842
-0.00261096
-0.00155069
0.0327456
0.0326346
0.0327177
0.0327605
0.0327498
0.0327674
0.0326902
0.0328216
0.0328851
0.0328922
0.0329591
0.0326686
0.0328368
0.0328048
0.0329154
0.0328978
0.0327838
-0.00572151
-0.00565257
-0.00578582
-0.00606032
-0.00596874
-0.00566478
-0.00545042
-0.00583842
-0.00594089
-0.00620323
-0.00550822
-0.00507689
0.0308302
0.0306461
0.0311939
0.0311966
0.0309538
0.0308984
0.0305606
0.0307732
0.0309952
0.031159
0.0311992
0.0308298
0.0306676
0.0307845
0.0305841
0.0307838
0.0305819
0.0308459
0.0309125
0.0305725
0.0308151
0.0244188
0.0239818
0.024077
0.0244928
0.0245313
0.0236958
0.0240815
0.0257197
0.0258895
0.0256775
0.0249887
0.0246293
0.024265
0.0242008
0.0242302
0.0249154
0.0248078
0.0248091
0.00965023
0.00991114
0.00998832
0.00957359
0.00983772
0.0105398
0.0101763
0.0102147
0.00996753
0.0111225
0.0109472
0.0111953
0.0110285
0.0100999
0.00982833
0.0508302
0.0457607
0.0399353
0.0413559
0.0476912
0.0457834
0.0572339
0.042616
0.0494712
0.0443706
0.0568023
0.056603
0.0523259
0.0455947
-0.000663759
-0.000370463
-0.000869987
-0.00142683
-0.00127606
-0.00156782
-0.000736853
-0.000820276
-0.0010933
-0.000795922
-0.00161472
-0.00125013
-0.000931487
-0.000381308
-0.000603504
-0.00109035
0.0264567
0.0244054
0.0260406
0.0242456
0.0239116
0.0242997
0.0246215
0.0246753
0.0255271
0.02593
0.0283811
0.0278727
0.0268945
0.0292024
0.0297877
0.0272101
0.0282409
0.032018
0.0319786
0.031577
0.0316759
0.0317794
0.0318314
0.0320511
0.0320883
0.0315434
0.0316603
0.0319987
0.0320265
0.0319822
0.0318609
0.0318169
0.0319831
0.0317891
-0.0118018
-0.00950671
-0.00948191
-0.0128477
-0.00874809
-0.013803
-0.0193805
-0.00877992
-0.0115461
-0.0121338
-0.0112998
-0.0114056
-0.0125761
-0.00935379
-0.0162092
-0.0160314
-0.0131217
-0.0141902
0.0191683
0.0188316
0.0204281
0.0201027
0.0194023
0.0181066
0.0185082
0.0200478
0.0205285
0.0201358
0.0198882
0.0201932
0.0185223
0.0182752
0.0176438
0.0194296
0.0183156
0.0189298
0.0178993
0.0194003
0.0187047
0.0184734
-0.00493286
-0.00520884
-0.00511715
-0.00507451
-0.00413158
-0.00424141
-0.00306194
-0.00328958
-0.00433591
-0.00528125
-0.00496709
-0.00450609
-0.00332543
-0.00348657
-0.00339782
-0.00345969
-0.00455301
-0.00510637
-0.00440255
-0.0044921
-0.00493936
-0.00476624
-0.00454567
-0.00486353
-0.00514544
-0.00496614
-0.00505135
-0.00425932
-0.00430459
-0.00419682
-0.00439162
-0.00434776
-0.00509791
-0.00507411
-0.00500269
-0.00469202
-0.00430619
-0.00477623
-0.00479907
-0.00466685
-0.00471934
-0.00487663
-0.00510234
-0.00514816
-0.00465687
-0.00501603
-0.00465208
-0.00479983
-0.00454421
-0.00501248
-0.00423394
-0.00455012
-0.00435194
-0.00508247
-0.00470849
-0.00436036
-0.0050714
-0.00681001
-0.00730266
-0.00719321
-0.0087671
-0.00546363
-0.00407238
-0.00798631
-0.00772462
-0.00248674
-0.00337823
-0.000674586
-0.00413694
-0.00151196
-0.00452419
-0.00392892
-0.00618768
-0.00591726
-0.00420204
-0.00353337
-6.44912e-05
-0.00242489
-0.000465469
0.00761621
0.00602257
0.00536673
0.00584174
0.0064445
0.00801493
0.00789508
0.00686088
0.00614557
0.00531061
0.0057092
0.00585344
0.00549834
0.006527
0.00638305
0.00746077
0.00625328
0.00551856
0.00617053
-0.00737269
-0.00694427
-0.00715484
-0.00719057
-0.00731405
-0.00736044
-0.00755124
-0.00784461
-0.00737216
-0.00793154
-0.0074451
-0.00728902
-0.00731968
-0.00725626
-0.00731207
-0.00727731
-0.00732015
-0.00363927
-0.0038405
-0.00529739
-0.00477095
-0.00458644
-0.00484298
-0.00507978
-0.00475629
-0.00414832
-0.00497522
-0.00433716
-0.00498324
-0.00466347
-0.00470513
-0.00418331
-0.00497844
-0.00491919
-0.00551286
-0.00428658
-0.00493496
-0.00390251
-0.00516711
-0.00487271
-0.00521742
-0.00528485
-0.00370709
-0.00465978
-0.004966
-0.00477543
-0.00416431
-0.00516562
-0.000151856
-0.000444935
-0.000163933
-7.48812e-06
-0.000122018
-0.000195563
-0.000296295
-0.000301674
4.02188e-05
-0.000140434
-0.000364248
-0.000296718
-0.000433406
-0.000529497
-0.000114607
-0.000254839
-0.000600006
-0.00049386
-0.000471485
-0.000495566
-0.000216346
-3.92918e-05
-0.000648703
-4.81021e-05
-0.000275036
-0.000211665
-0.000470235
-0.000618037
-0.000275652
-0.000438507
-0.00022972
-9.3674e-05
-6.53932e-05
-0.000280543
-0.000538507
-0.000279082
-0.00024249
-0.000579258
-4.87043e-05
-0.00029622
-0.012332
-0.013103
-0.0162443
-0.0169533
-0.0168396
-0.0176549
-0.0134667
-0.0143116
-0.0147734
-0.0114006
-0.012845
-0.0137778
-0.0162235
-0.0154789
-0.015642
-0.0143144
-0.0139797
0.000836889
0.000847111
0.000450262
0.00173202
0.00108645
0.000217502
-5.05998e-05
0.00179982
0.00150942
0.000552863
-0.0110365
-0.0110588
-0.0117267
-0.0120224
-0.011005
-0.0109802
-0.0113361
-0.0119732
-0.011925
-0.0113925
-0.0113726
-0.0111412
-0.0111208
-0.0106013
-0.0105856
-0.0110753
-0.0109209
-0.0109332
-0.00820033
-0.00817842
-0.00833045
-0.00799625
-0.00839983
-0.00802201
-0.00819798
-0.00796461
-0.0076768
-0.00772486
-0.00847241
-0.00853762
-0.00823593
-0.000632504
-0.000363497
-0.000745322
-0.000436273
-0.000903709
-0.00103389
-0.000731942
-0.000224227
-0.000146188
-0.000639688
-0.00088843
-0.000673598
-0.000211268
-9.90489e-05
-0.010229
-0.0101165
-0.0106741
-0.0103471
-0.0101198
-0.0101048
-0.0105757
-0.010437
-0.0103622
-0.0103837
-0.0103772
-0.0107543
-0.0104194
-0.0100534
-0.0110465
-0.0198402
-0.0189651
-0.0186391
-0.0187502
-0.0177641
-0.017501
-0.0206752
-0.0200862
-0.0200048
-0.0203639
-0.0209618
-0.0209647
-0.0183316
-0.018116
-0.0188662
-0.0188643
-0.0190133
-0.0203395
0.031636
0.0316319
0.0318878
0.0312343
0.0313488
0.0313098
0.0314183
0.0312388
0.0315594
0.0315369
-0.00752437
-0.00758326
-0.00758281
-0.00781085
-0.00748334
-0.00778376
-0.0074481
-0.00753417
-0.00734045
-0.00742175
-0.0074637
-0.00774106
-0.00781039
-0.00758068
-0.0078272
-0.00744124
-0.00757569
-0.00761036
-0.00741874
-0.00758664
-0.00765308
-0.00759095
-0.00409717
-0.00418884
-0.00431162
-0.00445609
-0.00379503
-0.00396775
-0.00424867
-0.00412292
-0.00405053
-0.00392674
-0.00303097
-0.00338272
-0.00401329
-0.00339724
-0.00337391
-0.00317266
-0.00349474
-0.00321225
0.0332955
0.0342647
0.0355306
0.0342254
0.0327996
0.0352803
0.0334595
0.0344055
0.0307163
0.0325812
0.0341527
0.0313367
0.0316652
0.0304212
0.0291441
0.0322504
0.0300566
0.0289254
0.0299997
0.0337104
0.0315583
0.0305948
0.0280145
0.0333151
0.0340863
0.0354803
0.0349304
0.0393927
0.0385938
0.0357785
0.0383969
0.0315865
0.0308688
0.0392482
0.0402779
0.0368307
0.0395549
0.0326185
0.0327331
0.0327898
0.0326015
0.0327072
0.0326009
0.0327763
0.0327273
0.0325757
0.0327041
0.0325222
0.0325591
0.0327783
0.0327172
0.03272
0.0327769
0.0321622
0.0280099
0.0275896
0.0299412
0.0310446
0.032883
0.0308278
0.0309139
0.0272345
0.0265594
0.0312596
0.0290917
0.0306635
0.0279066
0.0300004
0.0277441
0.0274889
0.0287901
0.0293657
0.028232
0.0289123
0.0300423
0.0298821
0.029157
0.0284208
0.0300547
0.0304617
0.0299621
0.0246954
0.0242404
0.0264843
0.0278508
0.0159746
0.014965
0.025064
0.0249037
0.0157111
0.0179306
0.0204786
0.0203934
0.02211
0.0195923
0.0171437
0.0150427
0.0305044
0.0296633
0.0300232
0.0305371
0.0297388
0.03106
0.0306567
0.0298594
0.0298768
0.0327213
0.0322896
0.0319705
0.0314199
0.0303001
0.0314331
0.0308695
0.0319278
0.0313145
0.0306592
0.0322096
0.0104538
0.0123098
0.00699988
0.00406656
0.00525683
0.00806597
0.0154496
0.00710265
0.0109516
0.0109054
0.0046607
0.00965236
0.0103765
0.00730993
0.0102801
0.0168642
0.0169261
0.0153982
0.0134027
0.0117464
0.0207389
0.017849
0.0179073
0.0150899
0.0190379
0.0191318
0.0191462
0.0164935
0.0150592
0.0161205
0.0162323
0.0170087
0.0173567
0.0319129
0.0319587
0.031769
0.0316634
0.0323282
0.0323008
0.0318723
0.031713
0.0324793
0.0324878
0.0319282
0.0322133
0.0324699
0.0324357
0.032332
-0.00979418
-0.00963327
-0.0101072
-0.00998198
-0.0104562
-0.00953514
-0.00940499
-0.0111409
-0.010741
0.0342567
0.0333828
0.0323749
0.0323178
0.033058
0.0324343
0.0346687
0.0321288
0.0358902
0.0344474
0.0322378
0.0340944
0.0347331
0.0350962
0.0355592
0.0313476
0.0316547
0.0334335
0.0356001
0.0342707
0.0318402
0.0327159
0.00655356
0.0072582
0.00658405
0.00468745
0.00570157
0.00659915
0.0034713
0.00472568
0.00503101
0.00293082
0.00412594
0.00216115
0.00296646
0.001876
0.00143351
0.00224649
0.00346306
0.00502756
0.00111093
0.00392736
0.0307037
0.0290185
0.033746
0.0292114
0.0311019
0.0375158
0.0347765
0.0309674
0.0346974
0.0303134
0.0327646
0.038624
0.0364531
0.0371771
0.0405911
0.0339237
0.0331814
0.0314605
0.0359395
0.029929
0.0331176
0.0308243
0.0347298
0.0391356
0.0400318
0.0381487
-0.00881042
-0.00972927
-0.00936582
-0.00889861
-0.00887131
-0.00965178
-0.00914211
-0.00871028
-0.0103203
-0.00859395
-0.00892476
-0.00981415
-0.0090109
-0.00860593
-0.00849032
-0.0087717
-0.00896797
-0.00978832
-0.00894897
-0.00831652
-0.00829194
-0.00826319
-0.00821116
-0.0089304
-0.00843302
-0.00888718
-0.0048248
-0.00458188
-0.00525015
-0.00570066
-0.00472353
-0.00494684
-0.00461773
-0.00341802
-0.0053012
-0.00276071
-0.0052829
-0.00420008
-0.00370456
-0.00441133
-0.00531525
-0.0052669
-0.00462689
-0.00448019
0.0126406
0.0121312
0.00868344
0.0107054
0.00934506
0.00737526
0.00409553
0.00882992
0.00910059
0.00666025
0.00175597
0.00552935
0.00694259
0.0280291
0.0288156
0.0291576
0.0277925
0.0294548
0.0292324
0.0296207
0.028759
0.0288881
0.0278759
0.028063
0.0299503
0.0293169
-0.0113006
-0.0111536
-0.0120431
-0.011359
-0.011435
-0.0120099
-0.0132381
-0.0127442
-0.0141362
-0.0121802
-0.0123374
-0.0119099
-0.0133547
-0.0116292
-0.0102659
-0.0100108
-0.0104779
-0.0109677
-0.0113221
-0.0114616
-0.0117117
-0.0103887
-0.0106228
-0.010884
-0.0104964
-0.0101583
-0.0106526
-0.0104586
-0.0100099
-0.00948027
-0.0098191
-0.0101043
-0.0101475
-0.009625
-0.0093467
-0.00933559
-0.00911903
-0.00949643
-0.00977632
-0.00991196
-0.0101583
-0.00975454
-0.00940399
-0.00972659
-0.00793057
-0.00759554
-0.00763878
-0.00751036
-0.00754268
-0.00745199
-0.00747666
-0.00779956
-0.00754491
-0.00746303
-0.00762585
-0.00759049
-0.007592
-0.00811326
-0.00378876
-0.00553824
-0.00569724
-0.00418551
-0.00532227
-0.00553845
-0.00606676
-0.00354311
-0.00360541
-0.00440301
-0.00426752
0.0255228
0.0271223
0.0262085
0.0273295
0.0265819
0.0274866
0.0265937
0.0258362
0.0269441
0.0260589
0.0274565
0.025233
0.0267741
0.0355299
0.0383731
0.0407011
0.0490173
0.0468159
0.0353065
0.0524076
0.0516
0.0387171
0.044378
0.0368933
0.0391023
0.0473059
0.0512098
0.0540189
0.0423974
0.0442412
0.0409139
0.0506378
0.0486079
0.0468122
0.0438193
0.0362461
0.0362641
0.0362062
0.0349244
0.0346534
0.0333836
0.0337965
0.034292
0.033577
0.0325775
0.032671
0.0224908
0.0218247
0.0215217
0.0211163
0.0236161
0.0231043
0.0213794
0.0228124
0.0219843
0.0210598
0.0202746
0.0205576
0.0222938
0.0237018
0.0238898
0.0210729
0.0205234
0.0228485
0.0199583
0.0341053
0.0343952
0.0342749
0.034269
0.0350131
0.0348451
0.0346284
0.0344541
0.0344512
0.0348549
0.0356145
0.0353155
0.0357511
-0.00657869
-0.00246229
-2.05597e-05
-0.00386919
-0.0018853
0.00191674
0.00173021
0.00233419
0.00315693
-0.00130801
0.00101728
-0.00663658
-0.00990203
-0.00136601
0.00190751
-0.00448983
-0.00216291
-0.0102837
-0.00542104
-0.0110385
-0.00409924
-0.00861732
-0.00854802
-0.00838447
-0.00860284
-0.00829612
-0.00839519
-0.00840347
-0.00879188
-0.00826607
-0.00799557
-0.00861689
-0.00840347
-0.00833091
-0.00821071
-0.00830642
-0.00838864
-0.00807264
-0.0081129
-0.0108832
-0.0125682
-0.00984985
-0.0103362
-0.00943517
-0.0116894
-0.0103589
-0.0102881
-0.0103186
-0.0104111
-0.0116578
-0.0139609
-0.0117226
-0.0116433
-0.0106875
-0.00861194
-0.0095757
-0.00939793
-0.00908248
-0.0100927
-0.0120778
-0.0098864
-0.00795582
-0.00861321
-0.00841441
-0.0105366
-0.00902576
-0.0030691
-0.00339653
-0.0036543
-0.00363981
-0.00396657
-0.0115797
-0.0136768
-0.0123049
-0.0137472
-0.0182217
-0.0115771
-0.0153911
-0.0186841
-0.0180725
-0.0226653
-0.0241573
-0.020531
-0.0200079
-0.0208548
-0.0158897
-0.000927893
-0.000802486
-0.00134918
-0.00212845
-0.00155024
-0.00149611
-0.00162011
-0.00144903
-0.00146096
-0.00109669
-0.000251294
-0.00171339
-0.00148999
-0.00087248
0.000351768
-0.000708619
-0.00146585
-0.000948473
0.0182975
0.0162953
0.0122028
0.0192691
0.00620463
-0.00417284
0.0186091
0.00890703
0.0176164
0.0116128
0.0129556
-0.0168826
-0.00937245
-0.0278373
0.00681084
0.0062175
0.0032792
-0.00659943
0.000484525
0.00563001
-0.0172412
-0.0168214
-0.0168988
-0.0153838
-0.0157741
-0.0146404
-0.014505
-0.0143171
-0.01571
-0.0159371
-0.0139368
-0.0146011
-0.0151052
-0.014195
-0.0102254
-0.00854813
-0.00923789
-0.0109453
-0.00670748
-0.00740529
-0.00880241
-0.0111365
-0.00865377
-0.00820887
-0.0109999
-0.00975348
-0.00595087
-0.00663642
-0.00591103
-0.00647135
-0.00654816
-0.00680225
-0.00460153
-0.00566093
-0.00484864
-0.00742965
-0.0107689
-0.00594716
-0.0118052
-0.0100428
-0.0118079
-0.0111894
-0.00159478
-0.00216615
-0.00195243
-0.00399315
-0.00626009
-0.00679513
-0.00865585
-0.00873196
-0.00332173
-0.00637696
-0.00383741
-0.00396606
-0.000511958
-0.00214232
-0.00240502
-0.0020969
0.0012942
0.00108163
8.55729e-05
0.00304312
0.00308036
-0.000389253
-0.00263093
0.000221071
0.00132992
0.0028541
0.0034244
-0.00104704
0.00133779
0.00103841
-0.000404451
0.000769438
0.013944
0.0145716
0.0116437
0.01206
0.0146403
0.0127892
0.0123009
0.0129207
0.013414
0.0129143
0.0118627
0.0124577