/*--------------------------------*- C++ -*----------------------------------*\
  =========                 |
  \\      /  F ield         | OpenFOAM: The Open Source CFD Toolbox
   \\    /   O peration     | Website:  https://openfoam.org
    \\  /    A nd           | Version:  10
     \\/     M anipulation  |
\*---------------------------------------------------------------------------*/
FoamFile
{
    format      ascii;
    class       volScalarField;
    location    "15";
    object      k;
}
// * * * * * * * * * * * * * * * * * * * * * * * * * * * * * * * * * * * * * //

dimensions      [0 2 -2 0 0 0 0];

internalField   nonuniform List<scalar> 
75457
(
1.94311
2.21424
1.33771
0.683323
1.43814
1.61869
1.72459
1.65939
0.48275
0.475623
0.42905
1.23779
1.063
0.509058
0.0837196
0.0687348
0.0165234
0.049465
0.0584588
0.0100485
0.0281441
0.0185692
0.0787212
0.0803042
0.0478568
0.0988499
0.100901
0.0972847
0.0844258
0.150234
0.0884888
0.126065
0.125862
0.052109
0.044013
0.0643524
0.0584221
0.122366
0.116577
0.0572327
0.0595834
0.0537557
0.0609697
0.145294
0.260153
0.0558242
0.0315172
0.155113
0.624871
0.201131
0.398955
0.561009
1.29617
0.394855
0.231136
0.250943
1.01594
0.980609
0.835783
1.37551
1.1348
0.698124
0.452558
0.318627
0.0561777
0.328655
0.0870927
0.375238
0.484401
0.908563
0.4636
0.990087
0.363112
0.028683
0.452785
0.129358
0.13697
2.58966
2.13543
1.5959
1.96797
2.04416
2.36941
1.89903
1.20816
1.19516
1.27813
1.40822
2.43334
1.72414
1.78399
1.5403
1.78342
1.47635
0.913996
0.33399
0.361665
0.397396
1.73942
0.843809
0.803929
1.24905
0.116208
0.0638688
0.0401504
0.0557859
0.187047
0.0406673
1.07551
0.310923
0.37565
0.779856
0.856778
0.717303
0.0605774
0.833785
1.28603
0.457935
0.449363
1.53613
0.0187661
0.0719471
0.076616
0.185843
0.444857
0.27049
0.844862
0.440098
0.847172
0.0927142
0.169349
0.904915
0.275482
0.588532
0.519269
0.870692
0.361282
0.74418
0.712569
1.30836
0.134417
0.265299
0.460945
0.151226
0.188564
0.652386
0.588316
0.525688
1.21547
0.702448
1.81731
1.10995
0.280441
0.197263
0.616623
0.975623
0.63127
1.29779
0.413695
0.878628
1.3433
0.312508
0.994568
0.00522769
0.00544378
0.00562694
0.00547028
0.00558327
0.00503299
0.00501053
0.00520023
0.00556144
0.00511419
0.00532697
0.00517994
0.00505505
0.686145
0.730231
0.879644
1.12302
0.981683
1.19907
0.699584
0.912582
1.43461
0.526976
0.728475
0.856677
1.35307
2.81257
0.952677
0.582531
0.828934
0.922169
0.634788
1.34922
0.106565
0.247475
0.189406
0.140782
0.092458
0.569083
0.714786
0.738704
0.472126
0.519001
0.890081
1.52557
1.48127
1.49256
1.19663
1.19989
1.56132
1.72209
1.06815
1.03063
1.78432
1.14711
1.8923
1.85902
1.68146
0.910512
0.941886
1.28875
0.884134
0.952303
1.82397
0.885944
0.833459
0.949089
0.232727
0.223471
1.24807
0.655127
0.871351
0.765235
1.13543
0.403579
0.436481
0.464761
0.473252
1.03302
1.20597
0.903022
1.22645
0.953853
0.727935
0.876476
1.14189
1.58558
1.08448
1.23914
0.695938
1.12121
0.720072
0.790749
0.408013
0.216295
0.323821
0.0409406
0.11553
0.139213
0.420309
0.350738
0.954108
1.65225
1.16097
2.1474
1.48702
1.44388
1.66726
1.3925
0.883832
0.926985
0.930089
0.842487
1.00732
0.887555
1.18348
0.849897
1.05511
1.01988
0.970356
0.916032
0.766062
0.841203
0.682229
0.273525
0.309579
0.492098
0.406292
0.466816
0.726816
1.01158
1.0446
1.29742
1.09776
0.911018
0.917467
1.1249
0.948177
0.473438
0.997749
0.425813
0.432581
0.415009
0.417165
0.395109
0.465994
0.598014
0.483958
0.628631
0.528349
0.619414
0.866581
1.07838
0.813162
0.84973
0.527052
0.576968
0.58519
0.436942
0.525726
0.330735
0.218303
0.51347
0.448321
0.466074
1.009
1.12304
0.611408
0.579487
1.128
1.30367
0.545056
0.565963
1.19897
1.1271
1.90655
1.10472
1.09294
1.73473
0.761522
0.739981
0.747585
0.467088
0.822195
0.91014
1.01264
0.979966
0.845547
0.461773
0.706394
0.611971
1.07669
1.21762
1.29427
2.21198
0.883
0.761532
1.3864
1.49206
1.45207
1.42558
0.374208
0.36011
0.441001
0.461555
0.691954
0.565482
1.11998
0.595101
0.642755
0.896698
1.54904
1.10402
1.00185
0.935015
1.01775
0.904554
0.737173
0.708376
0.882418
0.595113
1.2637
1.21129
0.888818
1.09725
0.346034
0.308215
0.788118
0.00400742
0.00417271
0.00375064
0.00374788
0.00424251
0.00446471
0.00395608
0.0042555
0.00417501
0.00531219
0.00380127
0.00372279
0.00367423
0.00367994
0.00377338
0.00382492
0.0036756
0.0036987
0.00391496
0.00393661
0.00380643
0.00357328
0.00353813
0.00351923
0.00390473
0.00383955
0.00373539
0.00353719
0.00347955
0.00368717
0.00373279
0.00387741
0.00390899
0.00368886
0.00370796
0.00381934
0.00378239
0.0037436
0.00378433
0.00388715
0.00388147
0.00373371
0.00381262
0.00375907
0.00376382
0.00372245
0.00378304
0.00388053
0.00399953
0.00374767
0.0038659
0.00385665
0.00380627
0.194513
0.0704866
0.0740254
0.0675578
0.0713536
0.160564
0.0642899
0.0784614
0.0528827
0.188129
0.0522311
0.0531053
0.0565691
0.0612182
0.0455748
0.162352
1.44054
0.927322
0.871363
0.933495
0.399003
0.414204
0.790233
0.761607
0.398217
0.388581
1.80928
1.42472
1.50574
0.954061
0.427699
0.0826025
0.0127685
0.018439
0.0776129
0.0758302
0.0474878
0.0179115
0.0173926
0.017373
0.0219455
0.013548
0.0445673
0.0740258
0.0716319
0.0809861
0.249775
0.0909175
0.0560728
0.0552071
0.00399958
0.00405696
0.00405036
0.00399728
0.00392616
0.00413633
0.00414097
0.00379092
0.00393456
0.00410554
0.00410904
0.00439031
0.00414995
0.00397669
0.00397102
0.00400608
0.00491393
0.00469675
0.00497645
0.00472499
0.0045324
0.00502788
0.00542584
0.00511456
0.00496225
0.00511553
0.0050527
0.00487967
0.00511709
0.00487254
0.00496891
0.00539049
0.00541331
0.00445441
0.00476102
0.00454663
0.00475578
0.00467833
0.0045628
0.00351665
0.00707222
0.00429211
0.00450213
0.00402508
0.00449016
0.0042951
0.00442977
0.00424317
0.00426716
0.00356991
0.386862
0.297982
0.348125
0.424437
0.273796
0.434115
0.403948
0.478273
0.3013
0.31317
0.328314
0.441859
0.546657
0.383683
0.486472
0.291034
0.469184
0.503107
0.0480767
0.0544149
0.0663714
0.0850899
0.030091
0.101184
0.0516231
0.0573448
0.0618059
0.122223
0.0686833
0.0670533
0.0662985
0.033584
0.096772
0.0894032
0.124831
0.0763182
0.133752
0.130668
0.134084
0.0965947
0.0847545
0.133745
0.137666
0.137774
0.0965651
0.0628882
0.0661603
0.124037
0.0786189
0.110238
0.00389275
0.0039237
0.00395848
0.0044404
0.00470812
0.00394074
0.00384221
0.00434721
0.00418159
0.0042416
0.00363749
0.00466182
0.247691
0.154383
0.343182
0.123235
0.317461
0.229427
0.26124
0.264091
0.304673
0.0755381
0.051663
0.0604965
0.0618597
0.0549475
0.0599913
0.0626541
0.0171375
0.0637553
0.0147297
0.0551644
0.145235
0.130315
0.196894
0.100066
0.0917868
0.0592667
0.036932
0.0258955
0.141682
0.0361802
0.04737
0.0602925
0.00626041
0.00725943
0.0405106
0.00815808
0.00172187
0.0572142
0.0427618
0.0135936
0.00096543
0.00223368
0.00063768
0.00196733
0.00311319
0.00276938
0.00649078
0.0566951
0.0508765
0.051256
0.0167686
0.136375
0.109489
0.0714353
0.191209
0.10401
0.15329
0.119508
0.0632399
0.102263
0.0572907
0.168106
0.136289
0.113525
0.115136
0.302781
0.310934
0.272863
0.2868
0.27935
0.27836
0.206236
0.234536
0.298136
0.189489
0.198344
0.305279
0.224334
0.193364
0.216666
0.191604
0.194687
0.209836
0.198916
0.428139
0.487283
0.0229027
0.0867317
0.327973
0.168771
0.0362319
0.0709927
0.560873
0.369938
1.0745
1.07604
1.14915
1.17001
1.18255
1.26307
1.15504
1.21702
0.998665
0.997709
1.22407
1.4008
1.39244
1.33808
1.375
1.33805
1.21947
1.0694
1.19353
1.1337
1.14882
0.0371355
0.0278064
0.088797
0.0642386
0.0721042
0.031697
0.0549341
0.0556237
0.0548327
0.165989
0.215123
0.275616
0.0276589
0.211336
0.384485
0.163619
0.272684
0.0493742
0.121457
0.243701
0.492096
0.135467
0.173574
0.495751
0.422483
0.170474
0.467118
0.25236
1.20295
1.22458
1.19771
1.50816
1.21806
1.51801
1.59789
1.50375
1.30378
1.29358
1.52127
1.42608
1.48133
0.0533859
0.0645183
0.0175558
0.0222073
0.0191609
0.0172967
0.0299092
0.0372721
0.115997
0.041332
0.0709455
0.0786074
0.0205645
0.0212872
0.0775674
0.0393014
0.0739761
0.0714094
0.0525854
0.097672
0.117777
0.0438086
0.0725294
0.0237576
0.11201
0.0326797
0.0249018
0.126863
0.124008
0.0186399
0.0814576
0.0960724
0.0726866
0.0675756
0.128098
0.0290657
0.0548019
0.184997
0.105774
0.0416734
0.00592358
0.0134235
0.119761
0.220192
0.106366
0.102176
0.136454
0.193029
0.0950761
0.120414
0.110523
0.0665981
0.0655487
0.120109
0.134107
0.187757
0.0706018
0.073029
0.0990039
0.19039
0.122961
0.0892912
0.122771
0.0980142
0.385394
0.377392
0.0485603
0.0828411
0.104425
0.137575
0.0739652
0.0832599
0.1286
0.345068
0.47115
0.374008
0.114035
0.142889
0.0794444
0.279466
0.203979
0.0474909
0.0476694
0.028233
0.033627
0.0353704
0.0271687
0.0203929
0.0388063
0.0344218
0.0486058
0.0523325
0.0210099
0.0500991
0.0488184
0.00382816
0.0037594
0.00390816
0.00394271
0.00395077
0.00385682
0.00402818
0.00391103
0.00422435
0.00433705
0.128226
0.0869622
0.138019
0.187259
0.0582062
0.0510666
0.174461
0.254706
0.0711183
0.149677
0.144652
0.145184
0.177686
0.0499422
0.170192
0.143931
0.0326451
0.634618
0.692481
0.652276
1.07894
0.980763
0.78053
1.00711
0.933621
0.964972
1.03299
0.601068
0.599094
0.743085
0.665652
0.88915
0.930128
0.890785
0.62759
0.678268
0.703633
0.00246933
0.00370312
0.00366437
0.00223649
0.0048214
0.0283109
0.0325683
0.00539073
0.00376068
0.00340733
0.0309233
0.038738
0.00201188
0.0176062
0.0238019
0.0452163
1.84987
2.11023
2.44293
2.36214
1.74759
2.1501
1.67422
2.17668
2.81759
2.50978
1.85045
1.85508
2.15361
0.0751617
0.109104
0.0896557
0.0613922
0.055357
0.0606334
0.10064
0.0818682
0.0653888
0.0648574
0.042423
0.0667864
0.0406695
0.116541
0.09418
0.0539201
0.121196
0.109151
0.0494048
0.0450886
0.0436886
0.0529218
0.00113212
0.00151304
0.00263083
0.00165366
0.00153712
0.0260132
0.104798
0.00392454
0.0372829
0.22427
0.245119
0.130957
0.121211
0.14855
0.040332
0.125971
0.170975
0.129829
0.0469602
0.0462718
0.118301
0.0237605
0.0613739
0.0522193
0.04269
0.0431477
0.0641786
0.0408849
1.00401
1.0298
1.06606
1.02773
1.01308
1.00285
1.0027
0.981448
1.0715
1.02323
1.06269
1.03674
1.11055
1.09226
1.09937
1.06968
0.0716195
0.165669
0.135011
0.0754515
0.0109124
0.0190338
0.0266285
0.0117467
0.0108087
0.010237
0.0875483
0.0588926
0.0188593
0.000215893
0.0309342
0.0228746
1.18415
1.68326
1.15951
1.52054
1.34142
1.94602
0.488837
0.610255
0.458237
0.488798
0.504725
0.72092
1.42076
1.8653
1.26117
0.807382
1.01458
1.02239
0.734674
1.70938
0.013379
0.00923615
0.00738822
0.00650842
0.00765352
0.00590854
0.00657103
0.00670636
0.00664145
0.014759
0.0165552
0.00890796
0.00871712
0.00589268
0.0152937
0.0641174
0.0749954
0.126063
0.171722
0.239597
0.23983
0.306947
0.122733
0.42012
0.556606
0.486376
0.236587
0.632936
0.649333
0.0248473
0.0445439
0.0187517
0.0227062
0.0196241
0.0307006
0.0121913
0.00668988
0.0327095
0.00762859
0.0187962
0.00676197
0.010926
0.00674667
0.00548941
0.00581537
0.0742129
0.0805145
0.0633353
0.0638835
0.223188
0.230402
0.0417122
0.120915
0.116259
0.0514571
0.220399
0.175467
0.266761
0.165361
0.176959
0.238635
0.244629
0.284414
0.285988
0.0115691
0.0503757
0.022217
0.0239761
0.0130382
0.116585
0.0326062
0.0522459
0.0674165
0.048071
0.0123853
0.0149206
0.0199611
0.0151303
0.0737537
0.0577871
0.0471008
0.10758
0.074595
0.0905287
0.0392362
0.0578698
0.114284
0.0716646
0.0633301
0.0160196
0.0118959
0.0105369
0.0780612
0.00483406
0.00648754
0.0255032
0.0229743
0.0125805
0.0109975
0.0261353
0.0289944
0.0131635
0.0250777
0.00910434
0.00730456
0.00730054
0.00809932
0.0309287
0.00854841
0.0230477
0.0207003
0.0165139
0.0311102
0.0243443
0.0250041
0.0612914
0.0230079
0.0652109
0.0718193
0.055873
0.0394157
0.530401
1.154
1.68191
0.891376
1.30043
0.649847
0.80285
1.22365
1.41747
0.476833
0.952093
1.12023
1.62654
0.6406
1.10697
0.307429
0.817838
0.459326
0.4158
0.75122
0.890948
0.684404
0.406079
0.366707
0.360865
1.25736
1.26947
1.26803
1.41915
0.356383
0.367786
0.352021
0.321535
0.347426
0.643018
0.664294
0.580836
0.0436058
0.0870442
0.0251821
0.0440103
0.0268678
0.0209725
0.0144151
0.0288169
0.0196972
0.0190429
0.0208837
0.0154895
0.0164872
0.0176492
0.0183112
0.014423
1.1651
1.22793
1.12661
1.19355
0.568096
0.761348
1.24588
0.751761
0.708271
0.866777
0.804399
0.928364
0.206548
1.20024
1.37394
0.988556
1.15224
0.297085
0.0715822
0.946165
0.0674209
0.986403
1.27475
0.401629
0.767837
0.29605
1.138
1.46306
1.07581
0.126282
0.350962
0.443207
1.61608
0.36254
0.743364
0.828309
1.36293
0.383728
0.577938
0.56719
1.082
0.317953
0.480817
1.54931
0.360554
0.723748
0.389264
0.941503
1.40296
0.751929
0.444671
1.11071
1.22683
0.368048
0.227195
0.876118
0.228914
0.835241
1.39113
0.826002
0.215983
0.258992
1.28149
0.84272
0.264728
0.237559
0.32985
0.254156
0.108741
0.171264
0.136181
0.268006
0.281857
0.0716944
0.0861527
0.0909367
0.216871
0.327219
0.137355
0.168676
0.0871218
0.224576
0.242333
0.0837603
0.0789148
0.0445855
0.0375729
0.0414062
0.0470786
0.12123
0.0689042
0.0448317
0.0672863
0.0488184
0.41488
0.707874
0.282206
0.0108647
0.0104614
0.010046
0.0103646
0.011169
0.00934691
0.033473
0.0392838
0.0610766
0.0320596
0.00160993
0.0128858
0.0141556
0.00849379
0.0274763
0.026549
0.0783295
0.0303867
0.00657902
0.00738602
0.778209
0.781387
0.735096
0.6418
0.953031
0.934799
0.947996
0.777323
0.576581
0.702182
0.742704
0.749068
0.710475
0.758882
0.629183
0.705827
0.594995
0.575652
0.579415
0.0274552
0.0133696
0.0186889
0.0146706
0.481504
0.808685
0.212212
0.344662
0.0578574
0.0191847
0.353398
0.0744524
0.0284761
0.154835
0.576002
0.226221
0.132623
0.299118
0.126125
0.310429
0.126037
0.115752
0.209976
0.130127
0.20655
0.811733
1.02789
0.519339
0.532479
0.40335
0.301548
0.210441
0.343151
0.280218
0.620487
0.276668
0.175148
0.180196
0.270355
2.0638
1.97431
2.28106
2.36131
2.2471
2.3455
1.88129
1.83911
1.77105
1.60411
1.65103
2.01725
2.03799
1.84392
2.29948
2.44481
0.0235299
0.0222428
0.0247529
0.029917
0.0303879
0.0269078
0.0503706
0.0418813
0.0448314
0.0276902
0.0314437
0.0300563
0.0454837
0.0351457
0.0357999
0.0345137
0.0417243
0.0391457
0.0394248
0.0304047
0.729644
1.00767
0.602143
1.01369
0.46187
0.525002
0.186236
0.326946
1.12195
0.656875
1.13506
0.941933
0.243392
0.233824
1.15223
0.842141
1.12905
0.735786
1.42032
0.484285
0.0219359
0.0445882
0.0551457
0.0549549
0.0372832
0.0281719
0.0250189
0.0391214
0.0490278
0.0417587
0.0426103
0.0380422
0.0658486
0.0316456
0.0840499
0.0765705
0.0784646
0.515749
1.10654
1.00721
1.91508
0.56619
0.643789
0.821833
0.883731
2.90905
0.840134
0.510212
1.61536
0.0119943
0.0104985
0.00903114
0.00412752
0.0114666
0.00834946
0.00770278
0.0052453
0.0049684
0.0136212
0.00885042
0.00476632
0.0570409
0.000275794
0.0196593
0.00104357
0.0309835
0.0974902
0.00110947
0.0564071
0.0807183
0.164937
0.14864
0.00679623
0.0114364
0.249213
0.176468
0.263565
0.0101771
0.0214255
0.0354421
0.00782352
0.0171888
0.0201592
0.00772567
0.0711203
0.0209882
0.0304951
0.00984306
0.0503524
0.151756
0.0370676
0.0665685
0.0946988
0.359437
0.0109724
0.0153907
0.264383
0.457905
0.0388236
0.0245483
0.0974982
0.242331
0.0701078
0.24455
0.24787
0.200576
0.105506
0.137945
0.216207
0.154876
0.152827
0.0808934
0.0248483
0.124155
0.0681353
0.0633157
0.0215525
0.0146204
0.0231735
0.0281459
0.0510281
0.00209321
0.00405204
0.00148038
0.00291165
0.070285
0.0698318
0.00884279
0.00110258
0.00517649
0.0370083
0.0720144
0.0710655
0.0112543
0.00353522
0.0052356
0.134072
0.0767427
0.51193
0.359266
0.123048
0.485783
0.328659
0.219553
0.105023
0.0197477
0.00131804
0.0160439
0.0536301
0.00531799
0.0209683
0.021359
0.00741259
0.0269065
0.0188759
0.0204814
0.0246596
0.0248887
0.0106149
0.0110144
0.022773
0.0274561
0.0257713
0.0207329
0.017664
0.0261284
0.0200768
0.110564
0.0687346
0.0635108
0.156918
0.0648016
0.525159
1.04862
0.0902393
0.236923
0.287895
0.200629
0.334717
0.296277
0.120054
0.827734
0.969941
1.24102
1.1715
0.499017
0.387915
0.229487
0.0674424
0.0845228
0.381576
0.347282
0.154374
0.148357
0.145207
0.0820542
0.100924
0.157012
0.0958297
0.0821986
0.123592
0.0720205
0.0470196
0.128058
0.194242
0.125029
0.122752
0.360031
0.379523
0.378731
0.375691
0.375982
0.370173
0.373432
0.377954
0.39465
0.372046
0.378563
0.379148
0.426321
0.375762
0.374634
0.369319
0.495799
0.380826
0.423916
0.530392
0.506592
0.427792
0.95929
0.769074
0.58969
0.821872
1.21845
0.749999
0.446741
0.842646
0.454512
0.785998
0.820677
1.56355
1.63983
0.899757
1.48277
1.74721
1.1058
1.56792
1.08594
0.734112
0.501494
0.360508
1.41889
1.00486
1.02917
0.197733
0.33823
1.2186
0.272156
1.00814
0.890283
0.251945
0.226746
0.192413
0.806666
0.979103
0.991984
0.975353
0.904584
0.988799
0.991069
0.907298
1.00237
0.961259
0.951626
0.98434
0.923094
0.864665
0.880864
0.833979
1.02407
0.972426
0.980566
0.873243
0.930446
0.978468
0.909578
0.633755
0.209123
0.235748
0.265678
0.731215
0.54307
0.954147
0.647315
0.559927
0.213171
0.431838
0.752617
0.540402
1.14197
1.0694
0.432833
0.463171
0.507796
1.46724
0.905791
0.955093
0.64943
0.40184
0.978102
1.08607
0.46507
0.34579
0.256773
0.951785
0.813599
1.04002
1.3297
0.604947
0.896613
0.900481
0.263388
0.652176
0.705163
0.282636
0.278245
0.986417
0.786676
0.807455
1.13905
0.820569
0.851672
0.300743
0.277359
0.656492
0.30206
0.745916
0.81216
0.841117
0.819847
0.827043
0.693723
0.717046
0.664739
0.744073
0.707701
0.499974
0.472428
0.731379
0.563897
0.468604
0.636712
0.652968
0.0747806
0.086273
0.0883943
0.0874514
0.0865833
0.0980723
0.0827772
0.0966966
0.0764188
0.075248
0.0762157
0.0992742
0.0794669
0.0926237
0.0840627
0.0911469
0.0824054
0.0814309
0.0843782
0.113809
0.0970869
0.0853765
0.0860857
0.0674728
0.05645
0.0599003
0.0478287
0.0202362
0.0141904
0.0459435
0.0428572
0.0112248
0.00829
0.0262967
0.02536
0.00684065
0.0218898
0.0142988
0.0183496
0.0191762
1.49949
1.38775
1.50978
1.73486
1.30162
1.71281
1.98207
1.27106
1.54496
1.56898
1.223
1.23956
1.3374
1.20124
2.85095
1.43907
1.81556
0.122855
0.020917
0.136333
0.676855
0.544377
0.0270635
0.0898214
0.0807531
0.0114629
0.262072
0.425646
0.691826
0.217867
0.213908
0.480799
0.705739
0.122715
0.121132
0.14109
0.137233
0.170695
0.193251
0.152283
0.952385
0.764908
0.180086
0.130118
0.285303
0.479363
0.775417
0.515974
0.607189
0.624549
0.772579
1.24957
1.65895
1.05016
1.51642
0.317957
0.6336
0.286913
0.0387463
0.0330768
0.0399044
0.0324997
0.0182777
0.0359976
0.0299634
0.0273583
0.0359703
0.0419747
0.0339508
0.0323658
0.0276778
0.0329854
0.114484
0.152825
0.107898
0.107926
0.239737
0.0919321
0.105638
0.199758
0.34064
0.24187
0.404777
0.148822
0.160819
0.250318
0.086164
0.609468
0.656519
0.639457
1.0448
1.10338
1.06037
1.28203
1.4723
0.824898
0.65114
1.29639
1.3439
1.16651
1.58356
1.32674
1.33515
1.41924
1.35866
0.0294506
0.0410719
0.024903
0.0242735
0.0273176
0.0239136
0.0282344
0.0222396
0.022076
0.0174721
0.934713
0.921765
0.670146
1.13302
0.236313
0.195977
0.14566
0.294338
0.534518
0.653147
0.910084
0.937167
0.772957
0.175993
0.195079
0.0685751
0.595694
0.823906
0.181054
0.18803
0.15864
0.188926
0.381296
0.34973
0.319381
0.303199
0.357765
0.451145
0.319484
0.382734
0.422605
0.419091
0.466107
0.599281
0.352927
0.373571
0.40149
0.341251
0.329973
0.358316
0.00696272
0.00685432
0.00651493
0.00698919
0.00662905
0.00633097
0.00669957
0.00656601
0.00614524
0.00645099
0.00627184
0.00653404
0.00675546
0.00654523
0.00628618
0.00601659
0.00612471
0.00591712
0.00626951
0.973103
1.05411
0.753507
0.900731
0.741615
0.740139
0.823242
0.653508
0.71928
0.662451
0.942519
1.02839
1.02686
0.90332
0.760892
0.732542
0.858577
0.938698
0.0277364
0.0289377
0.0242719
0.022077
0.0370021
0.0310564
0.0358724
0.0302548
0.0280214
0.0471972
0.0354749
0.0368789
0.0370078
0.0444463
0.059794
0.0571484
0.0040179
0.00411962
0.00410905
0.00403517
0.00406832
0.0040071
0.00399385
0.00395567
0.00397807
0.00396804
0.00397798
0.00392841
0.00398551
0.00460218
0.00456531
0.00468365
0.004671
0.00459729
0.00446948
0.00496053
0.00471948
0.005082
0.00475833
0.00487745
0.00486529
0.00479943
0.00494723
0.00463674
0.00431842
0.0048348
0.00405837
0.00452123
0.00432002
0.00295809
0.00401869
0.00425455
0.00438776
0.00400981
0.00462136
0.00375959
0.00418892
0.00429105
0.00489655
0.00524537
0.00883112
0.00882335
0.00860988
0.00800854
0.00813823
0.0084665
0.0078789
0.00791457
0.0082312
0.00831373
0.00998244
0.00982605
0.00840179
0.0080208
0.00826719
0.00831986
0.00976476
0.00867423
0.00888284
0.00869414
0.707885
0.701445
0.623587
0.389856
0.538307
0.46585
0.704742
0.555043
0.639221
0.305708
0.335503
0.616287
0.482721
0.576956
0.668587
1.02863
0.706691
0.834125
0.875821
0.94798
1.1003
0.842714
0.940249
0.959581
1.03923
1.1065
1.27845
1.0562
0.469401
0.432294
0.496666
1.03327
1.04977
0.0116714
0.0108926
0.010928
0.00960797
0.0124179
0.0110861
0.00963231
0.00950178
0.0102601
0.010918
0.00879828
0.00871507
0.00858055
0.00923204
0.00975109
0.206138
0.143487
0.132928
0.126249
0.251148
0.157647
0.192831
0.237532
0.277826
0.00809601
0.00851135
0.00749395
0.00751554
0.0081786
0.00736809
0.00728047
0.00771863
0.0070372
0.00679923
0.00684725
0.00668535
0.00703205
0.00786701
0.00735551
0.00686031
0.00691744
0.00715406
0.00782094
0.00819041
0.00697603
0.00717366
0.00270336
0.00401223
0.002497
0.0028321
0.00396495
0.00758251
0.00327521
0.00246322
0.00181482
0.00261151
0.00205565
0.00278165
0.00315158
0.00153465
0.00232562
0.00285086
0.00309524
0.00640636
0.00319022
0.0070452
0.00409623
0.00400984
0.00382425
0.00422572
0.00479099
0.00411567
0.00435028
0.00460039
0.00428073
0.00401806
0.00385714
0.00372403
0.00376577
0.00426584
0.00417643
0.00456819
0.00441333
0.00437425
0.00408753
0.0042867
0.00405428
0.00455277
0.00376461
0.00404157
0.00427622
0.00370766
0.0357259
0.058055
0.0629459
0.0492766
0.0142544
0.0561499
0.000489915
0.00141246
0.0575891
0.0248227
0.0793064
0.0406565
0.0339641
0.00303352
0.00548439
0.0272601
0.00720382
0.011978
0.00354143
0.00513965
0.00586151
0.00776352
0.0076288
0.0298136
0.00521822
0.015507
0.00585087
0.00589333
0.00551951
0.00624362
0.00785817
0.00560522
0.00641979
0.0155178
0.00844151
0.0101343
0.0147854
0.00720179
0.00923947
0.00935606
0.00908758
0.00725253
0.0075408
0.00721196
0.00373425
0.00376584
0.00433591
0.00373438
0.00362687
0.0046832
0.00397889
0.00370663
0.00366295
0.00378605
0.0046292
0.00369637
0.00347332
0.0054785
0.00600046
0.0055988
0.00508045
0.00559518
0.00597572
0.00641814
0.00578183
0.00554913
0.00557941
0.00550135
0.00601337
0.00569573
0.212171
0.116803
0.16922
0.20692
0.176361
0.12406
0.161373
0.170053
0.168606
0.223088
0.225984
0.205467
0.219459
0.0458201
0.0150364
0.0169771
0.0195401
0.0184821
0.0444543
0.0115027
0.058978
0.0159046
0.016239
0.0239573
0.0150898
0.00934812
0.0120153
0.0195308
0.022723
0.016014
0.0279661
0.0413187
0.0609135
0.0133565
0.0106234
0.0456978
0.040934
0.0887643
0.0330215
0.0436685
0.0592362
0.0154132
0.0420478
0.0158595
0.0171798
0.0215406
0.0132916
0.0198817
0.014719
0.0298591
0.0161621
0.0100168
0.0110474
0.0265421
0.0141508
0.011796
0.0143696
0.018578
0.989808
1.02284
0.99092
0.811561
1.03472
0.958607
1.18173
1.17774
1.12945
1.16168
1.28575
0.00397745
0.00385886
0.0041188
0.00428545
0.00441997
0.00406086
0.00426467
0.0041136
0.00429627
0.00430643
0.00407421
0.00409543
0.00417689
0.00291317
0.00817855
3.24166e-05
0.0424847
0.00374082
0.00638707
0.00268321
0.00245879
0.00690639
0.00746585
0.00439717
0.00541805
0.00656094
0.00514745
0.00818977
0.00416086
0.005177
0.00554217
0.00730406
0.00470871
0.00425327
0.00451836
0.0035699
0.00381916
0.00306084
0.00205562
0.00460706
0.00337242
0.00346931
0.00462511
0.00351535
0.00377049
0.00397844
0.00379635
0.0038623
0.00344197
0.00330329
0.00378864
0.00384118
0.0039739
0.00392863
0.00424857
0.00418673
0.00402883
0.00392046
0.00394987
0.00400876
0.00401581
0.00395715
0.00449951
0.00411113
0.00410886
0.0158827
0.0146068
0.0185486
0.0129949
0.0132511
0.0171456
0.0186983
0.0151663
0.0173654
0.0161049
0.0132961
0.0174579
0.0142773
0.000329227
0.00443065
0.00425389
0.00201308
0.00326233
0.00351356
0.00334609
0.00395181
0.00376933
0.00356137
0.00355159
0.0025479
6.84234e-05
0.00349156
0.00395942
0.00250661
0.00486095
0.00243494
0.0073269
0.00795674
0.002339
0.00591322
0.00920531
0.00677195
0.00743683
0.0171382
0.0136201
0.0111665
0.0171327
0.0229705
0.0168133
0.0223278
0.0289049
0.0157047
0.0168816
0.0203793
0.0232779
0.0175696
0.0219415
0.486185
1.41372
0.335947
0.59012
0.47324
1.10305
0.186354
0.172169
1.14443
0.171722
0.640366
1.58422
0.737432
0.619625
0.764517
0.532433
0.139395
0.446971
0.875311
0.23483
1.05192
0.678829
0.332552
0.144343
0.420091
1.00483
1.0213
0.00684952
0.0204915
0.02114
0.000171494
0.0096243
0.604794
0.18934
0.526732
0.0586049
1.10402
0.120713
1.11305
2.39172
1.95881
1.03133
2.12385
2.46445
0.931255
1.78371
0.341556
0.938209
0.865746
0.670438
0.750147
1.06187
0.737252
0.724469
0.936073
1.00399
0.761693
0.391188
0.799485
0.721767
0.419206
0.53687
1.15992
1.14844
0.765179
0.0428494
0.0779414
0.125052
0.116657
0.0701409
0.131659
0.0610552
0.197525
0.0220502
0.0436539
0.360082
0.531443
0.328213
0.423388
0.232359
0.0905838
0.111813
0.143037
0.382122
0.10794
0.341949
0.394137
0.214161
0.187682
0.209602
0.145496
0.178967
0.285285
0.497646
0.419078
0.0854109
0.279944
0.454595
0.287913
0.0532583
0.0014263
0.0162424
0.0013981
0.00306539
0.00283696
0.0357346
0.00340921
0.0228386
0.0327544
0.0390107
0.0402057
0.00400584
0.00371196
0.00306275
0.00466566
0.0120749
0.0114286
0.973198
1.28304
1.19139
1.1897
1.42383
1.05593
2.13332
0.233495
1.88708
0.793651
0.303678
0.0720689
0.291249
0.437216
1.18886
0.210512
1.25903
0.811697
0.232901
0.354427
0.0637538
0.277621
0.00284043
0.00288543
0.00217348
0.00215438
0.0028235
0.00277079
0.0028271
0.00265486
0.00278374
0.00309921
0.00259218
0.00270103
0.00252978
0.00255348
0.00258004
0.0023631
0.00259038
0.00277913
0.0026727
0.00253335
0.00787605
0.0262226
0.0786489
0.00431363
0.00199652
0.00297803
0.0848002
0.000913681
0.018664
0.00357815
0.0037005
0.0259847
0.0035506
0.00367332
0.0252886
2.11474
3.02419
2.1209
3.73889
3.2977
3.40951
3.7526
1.78927
0.011566
0.00721253
0.0226714
0.0192689
0.0198839
0.00533212
0.00979604
0.00584098
0.019406
0.0148263
0.00566655
0.0142813
0.0810639
0.11793
0.972681
0.364697
0.0879857
0.160508
0.896214
0.674368
0.880421
0.930915
1.31726
0.681122
1.08672
1.71623
0.522235
0.20206
0.206158
0.28499
0.00232545
0.0051362
0.00598991
0.00739227
0.00681056
0.0022384
0.00296489
0.00564204
0.00501431
0.00633297
0.00926447
0.00436745
0.00368729
0.00680547
0.00361929
0.00824438
0.00990897
0.00473348
0.0424554
0.0434945
0.0665753
0.0692608
0.0582499
0.0634874
0.0337008
0.041798
0.0495753
0.0774084
0.0677371
0.0452536
0.0974309
0.0465737
0.067227
0.069799
0.0639456
0.0416065
0.0405518
0.0672904
0.0690243
0.0372999
0.0145502
0.0131872
0.015098
0.0177363
0.0139148
0.0167915
0.0146713
0.0130786
0.0156653
0.0174732
0.0172515
0.0157965
0.0155466
0.0144154
0.0157442
0.0140279
3.57748
3.20396
2.76533
3.56706
3.07967
3.04478
2.14111
1.51982
1.07038
1.0597
1.11049
1.13048
2.47132
1.20518
1.56932
1.31716
1.7096
1.98765
0.0637235
0.130358
0.116682
0.0617995
0.0336784
0.0190934
0.0578869
0.0707417
0.0887033
0.0704928
0.0372708
0.028695
0.0247521
0.0298327
0.0556663
0.0380815
0.0085409
0.00285597
0.00279637
0.00278699
0.00412973
0.00296636
0.00299376
0.00305261
0.00227545
0.00202161
0.0118634
0.00898618
0.01615
0.00054653
0.00262105
0.00217976
0.00250558
0.00264988
0.00643546
0.0127988
0.447585
0.43944
0.359174
0.206982
0.0476897
0.214936
0.0215768
0.160259
0.213668
0.336798
0.0545051
0.0450927
0.11836
0.139218
0.0660744
0.0773621
0.104334
0.0650728
0.044071
0.0545562
0.0894782
0.0637573
0.0179352
0.0486296
0.0206516
0.0235441
0.0175828
0.0349693
0.246595
0.172221
0.101817
0.205546
0.305113
0.0618668
0.0439824
0.184848
0.202706
0.181852
0.0458333
0.0341717
0.104918
0.130173
0.0802698
0.0557824
0.0892795
0.0379594
0.0345822
0.00413623
0.0393299
0.0381331
0.0438151
0.0430866
0.0279073
0.0338115
0.01613
0.0140842
0.0192102
0.0121124
0.0474664
0.0465122
0.0244762
0.0392672
0.0362324
0.0330469
0.0530381
0.0218778
0.00913195
0.0738944
0.0625209
0.0231465
0.0258726
0.0418142
0.0013542
0.00166814
0.00578156
0.000915424
0.000222187
0.00183142
0.00161827
0.00440181
0.0159324
0.0351892
0.0295385
0.00621679
0.00586914
0.0126229
0.00903735
0.0117084
0.00775629
0.00847948
0.00325776
0.00489869
0.000550141
0.00925763
0.00903551
0.0049865
0.00466571
0.0049925
0.00501431
0.00460279
0.0047644
0.00505715
0.00486354
0.00486422
0.00482673
0.00496231
0.00473012
0.00457994
0.00478246
0.0120703
0.012405
0.0167161
0.0162469
0.0171404
0.0172747
0.0119659
0.0106766
0.0142589
0.0151541
0.0123715
0.0153345
0.0132158
0.0138124
0.044759
0.0511814
0.0543267
0.0593544
0.119349
0.122377
0.12919
0.141512
0.0491647
0.0889779
0.0837775
0.0840948
0.117127
0.0812597
0.072535
0.380004
0.45616
0.0438079
0.00710125
0.141639
0.389657
0.48642
0.00309605
0.0552659
0.0285624
0.0615316
0.13761
0.0357713
0.0559603
0.0267207
0.00818158
0.0401887
0.749433
0.949328
0.708973
0.645898
0.477574
0.48658
0.623374
0.738381
0.456286
0.436504
0.663727
0.493685
0.532485
0.44697
0.406554
0.503919
0.515099
0.521215
0.58598
0.552981
0.552258
0.523838
0.446396
0.451883
0.582688
0.601618
0.634244
0.935902
0.347975
0.415374
0.418019
0.63876
0.296571
0.339934
0.892113
0.761654
0.671356
0.110419
0.170557
0.0826696
0.0647411
0.220222
0.203187
0.207824
0.149407
0.218234
0.0597647
0.155138
0.0679094
0.207257
0.246653
0.152004
0.187345
0.36791
0.37108
0.170709
0.259906
0.369991
0.419307
0.410026
0.326606
0.281994
0.271777
0.278637
0.306584
0.131912
0.184501
0.345611
0.20571
0.194549
0.217674
0.0035645
0.0037373
0.00392022
0.00357859
0.00333992
0.00369303
0.00332986
0.0033737
0.00359562
0.0033835
0.00334792
0.00333456
0.00336529
0.00339652
0.00335734
0.0033505
0.00334896
0.00335266
0.00330838
0.00335932
0.0117223
0.00938685
0.00439614
0.00547461
0.0272185
0.0103036
0.0054142
0.0184076
0.00704466
0.00556845
0.00387504
0.0338963
0.00663406
0.00609818
0.00602986
0.00602687
0.00667599
0.00623026
0.00689508
0.00693507
0.00642864
0.00621132
0.00612589
0.00621911
0.0060092
0.00693954
0.0067201
0.0441984
0.0547413
0.0489117
0.0500605
0.238188
0.20304
0.167027
0.172637
0.220464
0.0629934
0.0933554
0.0342308
0.0398337
0.144171
0.110451
0.0858965
0.0696198
0.0673998
0.0977126
0.0793095
0.0668374
0.158225
0.144599
0.370502
0.263897
0.148182
0.213882
0.200888
0.290211
0.0896579
0.0187694