/*--------------------------------*- C++ -*----------------------------------*\
  =========                 |
  \\      /  F ield         | OpenFOAM: The Open Source CFD Toolbox
   \\    /   O peration     | Website:  https://openfoam.org
    \\  /    A nd           | Version:  10
     \\/     M anipulation  |
\*---------------------------------------------------------------------------*/
FoamFile
{
    format      ascii;
    class       volScalarField;
    location    "15";
    object      nut;
}
// * * * * * * * * * * * * * * * * * * * * * * * * * * * * * * * * * * * * * //

dimensions      [0 2 -1 0 0 0 0];

internalField   nonuniform List<scalar> 
75457
(
0.0605469
0.0655236
0.0522627
0.0215322
0.0602571
0.0258342
0.0626027
0.020744
0.0288533
0.0286234
0.0273287
0.0430048
0.0562632
0.0199009
0.0350546
0.0290007
0.00812518
0.0207
0.0252366
0.00490745
0.012743
0.00832756
0.0327981
0.0337935
0.0208836
0.0386074
0.0389911
0.0434567
0.0370663
0.0608088
0.0410517
0.0518232
0.0515934
0.0257141
0.0221436
0.0310674
0.0291873
0.0491134
0.0487087
0.0282867
0.0288659
0.0268894
0.0302466
0.0512734
0.0807294
0.022525
0.0132856
0.0542399
0.0991326
0.0562407
0.0788965
0.0969255
0.0912705
0.0814091
0.059439
0.0613034
0.125524
0.108716
0.102448
0.0153996
0.0919197
0.102964
0.0518368
0.0443424
0.00794997
0.0411013
0.0130598
0.0452697
0.056967
0.011621
0.0565336
0.0126876
0.0467529
0.00370614
0.0561034
0.0181025
0.0180368
0.17649
0.188205
0.182441
0.11994
0.129069
0.216458
0.249876
0.151566
0.208084
0.197584
0.129308
0.199059
0.120417
0.253822
0.242948
0.152066
0.213138
0.160442
0.0987467
0.098299
0.101491
0.0141683
0.123132
0.0955676
0.113112
0.00525122
0.003192
0.00101393
0.00135711
0.00898018
0.0021753
0.0101466
0.0428393
0.0666709
0.0081141
0.00808463
0.0534122
0.0113797
0.0846507
0.0116603
0.0496658
0.0521711
0.0136395
0.00310805
0.0106484
0.0114337
0.0289782
0.0584962
0.0356694
0.00757131
0.0681757
0.0740107
0.0128745
0.0246902
0.130693
0.0419984
0.0968141
0.155771
0.0567341
0.0512862
0.136291
0.124542
0.00991781
0.0304768
0.0491438
0.0692642
0.0348376
0.0413205
0.109108
0.0828233
0.0637384
0.0679243
0.138001
0.0111173
0.119171
0.0546389
0.0475166
0.0686205
0.0708916
0.149865
0.00796881
0.0780486
0.124328
0.00821969
0.0584046
0.120331
0.000864627
0.000869433
0.000861263
0.000878716
0.000872296
0.000868647
0.00086496
0.000855742
0.00088343
0.000849115
0.000866925
0.000869053
0.000868335
0.0789223
0.0920894
0.115859
0.0965538
0.207399
0.0073362
0.180943
0.0752488
0.00872396
0.102091
0.191342
0.0891558
0.0757565
0.0173204
0.120516
0.0737518
0.0970426
0.0709113
0.0684757
0.0136693
0.0267031
0.0539857
0.0467709
0.032098
0.0237644
0.0764224
0.0827033
0.00802614
0.0759725
0.0726228
0.0692742
0.130031
0.117392
0.11714
0.107207
0.104842
0.0128412
0.0133272
0.111472
0.0935138
0.0145219
0.103792
0.0146345
0.0153815
0.063521
0.106791
0.0771189
0.00981863
0.0830072
0.0834599
0.0138774
0.0673405
0.105957
0.00721301
0.04612
0.0448622
0.0633308
0.078514
0.091248
0.105741
0.121536
0.0898028
0.0910284
0.0923173
0.0896868
0.113868
0.00935343
0.125412
0.0739802
0.09416
0.104129
0.119429
0.104434
0.0124128
0.103138
0.00965152
0.070016
0.0105308
0.0894322
0.00739809
0.0648454
0.0267994
0.0406785
0.0084914
0.031199
0.0340443
0.0924862
0.0578403
0.0941937
0.0176926
0.0981073
0.0157872
0.0158944
0.070965
0.0121266
0.0797681
0.146821
0.150255
0.0911383
0.135812
0.094928
0.0774858
0.0110235
0.0834332
0.111284
0.00943703
0.0995305
0.00852832
0.103245
0.00779103
0.100527
0.065518
0.0744703
0.0902985
0.0807658
0.0856884
0.147579
0.00951674
0.0675146
0.0123621
0.0693062
0.107718
0.109398
0.0106005
0.113649
0.0542959
0.032598
0.140982
0.0959784
0.230212
0.0127068
0.153338
0.188138
0.018304
0.286985
0.171214
0.125437
0.178561
0.0796628
0.0826777
0.0851568
0.0971177
0.0489056
0.0248097
0.0478484
0.0876958
0.104053
0.0266734
0.00975135
0.113085
0.0960253
0.089499
0.123414
0.0862111
0.0552838
0.0590544
0.0997081
0.00845317
0.095551
0.096567
0.136302
0.141506
0.0125365
0.110816
0.129164
0.0114622
0.112498
0.105501
0.0352859
0.0710282
0.0702049
0.115935
0.0345278
0.124175
0.140381
0.028932
0.109774
0.127157
0.115376
0.147959
0.128695
0.0205284
0.106228
0.138164
0.0185671
0.0140568
0.0199218
0.0135025
0.0858
0.0881003
0.0823044
0.0919796
0.0929961
0.0886543
0.101133
0.0960133
0.0946837
0.103067
0.0134356
0.0870284
0.0872981
0.122413
0.00874858
0.133476
0.106483
0.0950519
0.0292342
0.0253887
0.0689681
0.289353
0.101825
0.123924
0.0701393
0.070736
0.0944173
0.000886213
0.000912675
0.000848254
0.000849538
0.000924988
0.000968584
0.000877029
0.000930983
0.000907841
0.00114449
0.000840425
0.000840144
0.000813364
0.000820487
0.000848095
0.000839261
0.000827377
0.000837601
0.000897499
0.000902754
0.000857364
0.000816541
0.000794009
0.000802025
0.000868964
0.000857795
0.000856555
0.000799413
0.000789173
0.00082665
0.000839113
0.000911015
0.000904594
0.00085068
0.000847899
0.000885388
0.000869574
0.000853649
0.000853362
0.000912387
0.000901907
0.000876328
0.000895988
0.000869608
0.000861274
0.000858416
0.000856066
0.000893369
0.000915718
0.000863672
0.000884259
0.000891031
0.000873148
0.0520832
0.0248079
0.0259134
0.0237375
0.0251261
0.0453314
0.0224208
0.0275137
0.0193376
0.0493327
0.0194163
0.0190878
0.0202901
0.0216072
0.0171535
0.0474682
0.0426706
0.0368556
0.0517283
0.0238053
0.0310918
0.0320592
0.0591931
0.025919
0.0311584
0.029505
0.0419354
0.0348912
0.0538785
0.0298359
0.0269898
0.0077098
0.00357424
0.00524598
0.0205612
0.0193725
0.0127941
0.00493387
0.00488476
0.00494417
0.0060921
0.00372969
0.0121672
0.0192048
0.0187165
0.0224705
0.0532804
0.0243834
0.0153699
0.0151056
0.000877875
0.000879434
0.000884545
0.00088673
0.000876779
0.000916066
0.000914448
0.000834234
0.00086616
0.000907207
0.000901704
0.000948659
0.000913173
0.000867396
0.000861924
0.000866312
0.00084263
0.000839133
0.000841029
0.000844751
0.000845012
0.000835917
0.00085288
0.000847192
0.000846187
0.000847315
0.000859264
0.000847365
0.000850716
0.000848834
0.000854913
0.000862904
0.000853692
0.000944871
0.000978012
0.000972714
0.00101077
0.001011
0.000992884
0.000750882
0.00147153
0.000931875
0.000999844
0.000851565
0.000984883
0.000955214
0.000982402
0.000926767
0.000959983
0.000772279
0.0933286
0.0805207
0.0854819
0.0901456
0.0805839
0.103887
0.104781
0.113831
0.0838038
0.0911608
0.0838914
0.0913537
0.121153
0.0923866
0.120263
0.0746284
0.0986181
0.102386
0.0219997
0.0250174
0.0299419
0.0350847
0.0145777
0.0400939
0.0235463
0.026365
0.0283332
0.0461172
0.0300943
0.0307311
0.0298426
0.0159074
0.0376367
0.0353034
0.0455208
0.0303732
0.0473599
0.0466062
0.047796
0.0368521
0.0332736
0.0471251
0.0481689
0.0486955
0.0371986
0.0257729
0.0268548
0.0449266
0.030323
0.0404423
0.000915542
0.000919049
0.000921991
0.000987226
0.00103548
0.000918772
0.000894981
0.000967142
0.000945359
0.000949008
0.000851999
0.00102892
0.0628513
0.0460705
0.0804629
0.0383235
0.075978
0.060097
0.0633337
0.064472
0.07437
0.0256882
0.0182913
0.0205718
0.0192371
0.0171681
0.0203161
0.0194653
0.00855286
0.0253746
0.0074714
0.0234782
0.0432968
0.0428314
0.046843
0.0344477
0.0320308
0.0246055
0.0168003
0.0124439
0.0383234
0.0165814
0.0204769
0.0237923
0.00171596
0.00200089
0.0110904
0.00221308
0.000452295
0.0154486
0.011714
0.00377188
0.000268921
0.000607246
0.000171934
0.00053436
0.000842125
0.000735629
0.0017222
0.0154021
0.0139581
0.0137822
0.00466817
0.0544692
0.0442012
0.0323006
0.0683537
0.0426131
0.0564278
0.0455393
0.0273336
0.0413025
0.0264213
0.062787
0.0532983
0.046522
0.0469283
0.101873
0.113755
0.0972294
0.098977
0.102194
0.0992714
0.0797971
0.0934374
0.114797
0.0787269
0.0809252
0.111643
0.0876702
0.0774352
0.0852218
0.0821648
0.0814429
0.0831775
0.0397888
0.0689992
0.076594
0.00582313
0.0220095
0.0609276
0.0360383
0.0108594
0.0194217
0.0811554
0.0665516
0.185212
0.184929
0.175902
0.110437
0.148734
0.190738
0.192254
0.165616
0.172196
0.166899
0.172964
0.134458
0.136645
0.179264
0.146515
0.162286
0.174109
0.166972
0.160038
0.125258
0.163404
0.0135699
0.0100177
0.0295433
0.022409
0.0251399
0.0118768
0.0195964
0.0196413
0.0194757
0.0475458
0.0551005
0.063132
0.0105468
0.0554542
0.0741045
0.0456659
0.0615996
0.0145445
0.0404837
0.056021
0.0375774
0.0437254
0.050765
0.0643263
0.0343407
0.0391925
0.0656257
0.0493864
0.254034
0.279969
0.224144
0.210562
0.216619
0.233005
0.226314
0.201648
0.176796
0.21118
0.201822
0.208684
0.196385
0.025605
0.0301215
0.00938036
0.0116803
0.00980174
0.00906504
0.0147204
0.0180973
0.0465213
0.0206259
0.0325022
0.0349479
0.0110055
0.0109718
0.0333703
0.020315
0.0340116
0.0333292
0.0254781
0.0394874
0.0461589
0.021748
0.0278382
0.0102175
0.04007
0.0138979
0.0107094
0.0422769
0.0434663
0.00842386
0.0314715
0.0339603
0.027587
0.0259737
0.043404
0.0130165
0.0226608
0.0584718
0.039224
0.0180363
0.00284583
0.00636468
0.0422072
0.0606355
0.0440386
0.0411799
0.045857
0.0569574
0.0391381
0.0496345
0.0424735
0.0290108
0.02853
0.0430463
0.0462601
0.0562341
0.0300141
0.031181
0.0389954
0.056486
0.0495683
0.0371937
0.0461384
0.0412478
0.0870142
0.0776949
0.0221413
0.0349899
0.0407835
0.0399226
0.0318514
0.0344147
0.0463242
0.0983656
0.109839
0.0993881
0.0457614
0.0564923
0.0345316
0.0936402
0.0785869
0.0170613
0.0172559
0.0111987
0.012916
0.0137479
0.0110267
0.00858211
0.0151104
0.0134947
0.01836
0.0197926
0.00878654
0.0186772
0.0180183
0.000861461
0.000794513
0.000807465
0.000870225
0.000843249
0.000814333
0.000830992
0.000849009
0.000899447
0.000901825
0.0419786
0.0323353
0.0451384
0.0546406
0.0228767
0.020239
0.0516183
0.062236
0.0272093
0.0448077
0.0452874
0.0453518
0.0493125
0.0192155
0.0488845
0.044913
0.0129303
0.110304
0.114191
0.110417
0.17229
0.164666
0.137847
0.162246
0.158041
0.168153
0.181352
0.10276
0.104459
0.123334
0.116366
0.145884
0.166588
0.156972
0.11403
0.119708
0.127402
0.000517894
0.000766473
0.000771659
0.000468076
0.000960011
0.00549433
0.00581426
0.00109655
0.000763609
0.00071057
0.00564419
0.00700403
0.000422714
0.00361935
0.00467452
0.00777269
0.203228
0.275054
0.355017
0.313423
0.14874
0.2332
0.139075
0.188431
0.270439
0.267849
0.156044
0.174282
0.20831
0.0260787
0.0352096
0.0310111
0.0224005
0.0207637
0.0223255
0.0330145
0.0279737
0.0238047
0.0233724
0.0168698
0.0237885
0.0105597
0.0274074
0.0236178
0.0138394
0.0289506
0.0266286
0.0131224
0.012076
0.0118054
0.0140344
0.000298186
0.000401784
0.000683072
0.000432441
0.000392388
0.00675764
0.0260447
0.0010184
0.00968957
0.055575
0.0610708
0.0344991
0.0320091
0.0370368
0.0135146
0.0366346
0.0446297
0.0365761
0.0167223
0.0164488
0.0347027
0.00891333
0.0203535
0.0175398
0.0155159
0.0157901
0.0215117
0.0146131
0.207738
0.14843
0.198174
0.20603
0.202905
0.197237
0.138396
0.22146
0.166851
0.207445
0.204493
0.211818
0.195398
0.171429
0.197416
0.177356
0.0159378
0.0337071
0.0291434
0.0171378
0.00248353
0.00424865
0.00603167
0.00267913
0.00244917
0.00227205
0.0190858
0.0131472
0.00413618
4.72649e-05
0.00644078
0.00492658
0.0223055
0.142288
0.0876844
0.125622
0.0248136
0.132688
0.0844735
0.0634339
0.0770604
0.0771257
0.0823516
0.104809
0.16088
0.172079
0.0922391
0.0957409
0.098298
0.0978259
0.0853234
0.169847
0.00200425
0.00121034
0.00100588
0.000919953
0.00111934
0.000825942
0.000849876
0.000909233
0.000962515
0.00201802
0.00224208
0.0012622
0.00116341
0.000846026
0.00214397
0.0127942
0.0140599
0.0237116
0.032093
0.0401777
0.0378695
0.0425881
0.0201621
0.0556827
0.0697533
0.0645617
0.0351608
0.0740749
0.0717344
0.00665313
0.0107776
0.00516996
0.00610378
0.00545497
0.00806424
0.00356013
0.00206594
0.00827405
0.0021939
0.00520066
0.00209315
0.00322453
0.0020947
0.00169128
0.00181918
0.0310882
0.0331147
0.0272249
0.0271565
0.0620544
0.0625693
0.0190484
0.0421441
0.0401815
0.0234361
0.0630584
0.0532206
0.0649066
0.0511501
0.054611
0.0634979
0.0670826
0.0649955
0.0634866
0.0043349
0.0151004
0.00735483
0.00838193
0.0047274
0.030311
0.0103606
0.0155631
0.0187455
0.0140662
0.00476423
0.00566682
0.00686391
0.0056464
0.0206747
0.0172928
0.0169924
0.0348344
0.0260542
0.0304464
0.0149019
0.0211009
0.0370681
0.0256671
0.0227833
0.00193958
0.0016549
0.00146315
0.00960471
0.000567761
0.000859717
0.00345512
0.00303264
0.00166786
0.00147215
0.00343289
0.00389405
0.00160177
0.00314011
0.00112761
0.000877166
0.000907977
0.00103347
0.0041799
0.00108787
0.00739095
0.00672159
0.00542676
0.0103266
0.00799177
0.00780623
0.0207027
0.00755259
0.0204954
0.0235126
0.018484
0.0130656
0.110705
0.16292
0.0137949
0.164447
0.0693021
0.101596
0.070135
0.00990601
0.0115698
0.0925133
0.0821287
0.0779493
0.0131621
0.0959217
0.0966755
0.0773782
0.0974411
0.0868281
0.0883314
0.0917511
0.0925656
0.0903681
0.0872944
0.0925627
0.0929059
0.100904
0.0154873
0.0921718
0.0175883
0.0927341
0.0917765
0.0914282
0.0867775
0.0908302
0.113175
0.104737
0.109974
0.0218024
0.0377194
0.0135416
0.0219902
0.0144139
0.0115813
0.00811442
0.0154945
0.0107748
0.0104017
0.0109126
0.00836916
0.00896711
0.00963537
0.00992973
0.00784413
0.209426
0.162423
0.169746
0.163135
0.067558
0.0897457
0.229868
0.114731
0.088538
0.113643
0.095774
0.124209
0.0538421
0.10254
0.0169649
0.101443
0.0142269
0.0645445
0.0254558
0.097743
0.0232951
0.115903
0.0761466
0.0839878
0.0938354
0.0723114
0.114206
0.0144628
0.106256
0.0461357
0.0794622
0.0854427
0.0159244
0.0802921
0.112217
0.102673
0.10695
0.0924694
0.0717806
0.152659
0.0099821
0.0543062
0.0677039
0.0142375
0.0671586
0.0854311
0.0500492
0.121508
0.0153704
0.133938
0.0676114
0.0990951
0.0131783
0.0823006
0.057232
0.10079
0.0591275
0.0949434
0.0149348
0.0961661
0.0620046
0.0667299
0.0849759
0.0900463
0.0691623
0.0671306
0.0754652
0.0695209
0.0416345
0.0557697
0.0490419
0.0717332
0.072717
0.0305826
0.0348092
0.0363722
0.0627415
0.0764784
0.0482138
0.054673
0.0352289
0.0660995
0.0683642
0.0192728
0.0214563
0.0108849
0.00909313
0.0105755
0.011911
0.0259032
0.0246969
0.0123535
0.0158097
0.0122511
0.0695858
0.0828908
0.0536698
0.000913442
0.000903584
0.000914521
0.000962845
0.000909795
0.000880074
0.00328515
0.00364505
0.00549729
0.00290047
0.000129879
0.000997639
0.00138699
0.000813991
0.0025408
0.00236608
0.00717938
0.00245319
0.00056638
0.000683679
0.0392968
0.0584318
0.0539655
0.0444669
0.0279325
0.0355669
0.022587
0.010016
0.0510517
0.0666212
0.0533747
0.0208624
0.0233725
0.0115555
0.0328439
0.0309025
0.0333198
0.0385775
0.0336108
0.00535222
0.00300322
0.00427721
0.00363473
0.0426938
0.0529591
0.0213628
0.02765
0.0119433
0.0043559
0.0307954
0.0100839
0.00602928
0.0219298
0.0437668
0.0274141
0.020823
0.0265156
0.0199225
0.0275636
0.0547031
0.0507842
0.0778757
0.055424
0.0775426
0.0894295
0.0885863
0.101876
0.0973019
0.107662
0.086729
0.0778662
0.0982138
0.0859318
0.0963373
0.0876691
0.0673184
0.0769521
0.0845218
0.227342
0.253622
0.251155
0.35714
0.168633
0.137818
0.202416
0.224184
0.288508
0.209669
0.192761
0.207808
0.159665
0.217274
0.31759
0.210286
0.000961141
0.00097408
0.00102927
0.00114865
0.000998192
0.000979154
0.00166043
0.000964425
0.00109366
0.000757637
0.00097334
0.000948206
0.00101745
0.00104128
0.00110088
0.00110478
0.00107255
0.00101003
0.000998623
0.00103558
0.0917579
0.1052
0.0769906
0.10034
0.0737589
0.0786488
0.0437946
0.0620086
0.09401
0.0807691
0.0108048
0.101416
0.0521367
0.0525927
0.0819711
0.0762715
0.0107594
0.0837468
0.0133716
0.0741696
0.000715917
0.00118831
0.00132969
0.00098333
0.000885751
0.000944428
0.00101631
0.000990201
0.00104069
0.000994271
0.000939885
0.00106838
0.00105234
0.000771045
0.00106378
0.000945401
0.00141952
0.156474
0.0910467
0.143335
0.0129347
0.0922067
0.108902
0.095625
0.113134
0.0193673
0.11001
0.250809
0.075268
0.00098938
0.000905523
0.000593914
0.000283803
0.00087322
0.00071964
0.000704345
0.000491005
0.000354482
0.000899787
0.000702702
0.000368608
0.00444239
1.94407e-05
0.00169847
8.09401e-05
0.00241776
0.00811773
7.18769e-05
0.00502918
0.0071267
0.0284357
0.0261247
0.00123887
0.0020337
0.0394579
0.0300886
0.041815
0.00177465
0.00388794
0.00629448
0.00140063
0.00314342
0.00372677
0.00144095
0.0122136
0.00369614
0.00545107
0.00179137
0.010436
0.0288462
0.0077024
0.0133514
0.018596
0.0569641
0.00229713
0.00310537
0.0434741
0.065825
0.00755995
0.00506084
0.0192012
0.040983
0.0135829
0.0241472
0.0295722
0.0311746
0.0173684
0.0135292
0.0330263
0.0277924
0.0241159
0.0129869
0.0039112
0.0221301
0.0109218
0.0101802
0.0034446
0.00465992
0.00721724
0.00887529
0.0154159
0.000681895
0.0013384
0.000469719
0.000931044
0.0201795
0.0191959
0.00283086
0.000351431
0.00162439
0.0112245
0.0205931
0.0207752
0.00158007
0.000492662
0.000716035
0.0188303
0.0108317
0.0630933
0.0515395
0.0174116
0.0573003
0.0451598
0.0332925
0.0163528
0.00277271
0.000167789
0.00208679
0.00742453
0.000732588
0.000960177
0.000971031
0.000441564
0.0014852
0.00096126
0.000933712
0.000978665
0.000975789
0.00056947
0.00055698
0.00089087
0.000911921
0.00103631
0.000778405
0.000743455
0.00103884
0.000832061
0.0151911
0.0118807
0.0118629
0.020372
0.0125166
0.038998
0.052258
0.0170127
0.0212561
0.025654
0.0238912
0.0327698
0.0260719
0.0210823
0.123047
0.0946091
0.0264093
0.178604
0.0603232
0.0571196
0.0407253
0.0145449
0.018916
0.0555279
0.0529338
0.0292718
0.0287278
0.0294782
0.0170372
0.0211252
0.0313945
0.0206068
0.0182987
0.0254404
0.0156839
0.0101378
0.0263457
0.0369288
0.0266899
0.0262138
0.093777
0.107502
0.116413
0.105636
0.0920181
0.108917
0.112494
0.113326
0.0915226
0.112666
0.109801
0.104828
0.112499
0.111977
0.117746
0.118123
0.0908072
0.0852896
0.0871208
0.0920329
0.105205
0.0985527
0.10669
0.130991
0.0944003
0.132339
0.0144232
0.0911566
0.0888769
0.092531
0.103765
0.107296
0.0908395
0.111741
0.0197582
0.0881704
0.100717
0.0213417
0.102972
0.0204326
0.0962181
0.0929879
0.0855305
0.0790013
0.0181003
0.102799
0.0924864
0.0649299
0.0774669
0.106349
0.0695953
0.0968132
0.0937351
0.0660456
0.0645411
0.0583796
0.0996241
0.175914
0.154568
0.172991
0.106798
0.125213
0.12314
0.0978588
0.14127
0.148007
0.121026
0.148891
0.133689
0.113263
0.127688
0.0242857
0.117465
0.106203
0.114473
0.0208095
0.101832
0.122428
0.110271
0.114185
0.0472561
0.0522351
0.0565701
0.0872008
0.0781613
0.131483
0.0938606
0.0861647
0.0508613
0.0699229
0.0989464
0.0703461
0.010691
0.00992077
0.067961
0.0718902
0.0735694
0.0136553
0.10714
0.0784574
0.0867522
0.121154
0.108248
0.0114067
0.0758736
0.0716934
0.0634036
0.0984925
0.09653
0.0727613
0.0139954
0.0904082
0.0982166
0.0900977
0.0634788
0.106857
0.124679
0.0642844
0.063518
0.103551
0.0913452
0.0805023
0.0112879
0.118508
0.0829425
0.0682282
0.0676503
0.0850336
0.0709023
0.148521
0.119375
0.184769
0.15971
0.117299
0.154496
0.163383
0.128677
0.151058
0.169609
0.119439
0.117114
0.18168
0.147003
0.120146
0.160376
0.165498
0.0380119
0.0431225
0.0437109
0.0437108
0.0435869
0.0462347
0.0424495
0.0497423
0.0384021
0.0383383
0.0392679
0.0470704
0.0400285
0.0450773
0.0428889
0.0443633
0.0416622
0.0408874
0.0417769
0.0488836
0.0449873
0.0429096
0.0350969
0.0307309
0.0266474
0.0282861
0.0258392
0.0120315
0.00871634
0.0244598
0.0216196
0.00694845
0.0051692
0.0149049
0.0144278
0.00426977
0.0127762
0.00856836
0.011002
0.0113907
0.197493
0.161103
0.159298
0.155312
0.158258
0.154704
0.245825
0.175243
0.152959
0.198097
0.166998
0.161956
0.182654
0.177118
0.241465
0.179569
0.211861
0.0311257
0.00603561
0.0344423
0.0883465
0.0859591
0.00780284
0.023898
0.0215585
0.00346814
0.0566337
0.0830333
0.0971653
0.0645353
0.0649899
0.0908068
0.103644
0.0440784
0.0414696
0.0483533
0.0475979
0.0547341
0.0498137
0.0494973
0.0973403
0.100857
0.0513874
0.0412963
0.0596107
0.0852422
0.0940971
0.0852606
0.096916
0.0874924
0.0968729
0.0817812
0.0148612
0.0976945
0.0136426
0.0724398
0.0854598
0.0686859
0.0210775
0.0184985
0.0216703
0.0181437
0.0107192
0.0194591
0.0166866
0.0154644
0.0189295
0.0212233
0.018159
0.0176992
0.0155627
0.017982
0.0366254
0.0484065
0.0372741
0.0379597
0.0581887
0.0347448
0.0373973
0.0531695
0.0765169
0.0632257
0.0850861
0.0437965
0.050647
0.0631534
0.0331424
0.0781046
0.085687
0.0310225
0.0458964
0.227624
0.0549375
0.236485
0.278498
0.0767967
0.110057
0.141051
0.243472
0.264191
0.224314
0.174968
0.299055
0.307834
0.223125
0.00144437
0.00169431
0.00097214
0.00119044
0.00128369
0.00111235
0.00119079
0.00113291
0.000940389
0.000894249
0.0933213
0.0119495
0.0872499
0.0146918
0.0549079
0.0501149
0.0414693
0.061211
0.0743206
0.074441
0.0867614
0.093393
0.0878593
0.0476239
0.0504133
0.0247093
0.0745454
0.086464
0.0468774
0.049976
0.0434028
0.046569
0.0923104
0.0637951
0.0666833
0.0674519
0.068645
0.0296176
0.0618896
0.0986326
0.101245
0.0241146
0.0545778
0.0305366
0.0665535
0.0965826
0.105201
0.0643684
0.0609312
0.0846754
0.000870792
0.000870771
0.000873421
0.000873506
0.000872764
0.000869194
0.000873548
0.000871053
0.000866687
0.000865712
0.000876292
0.000871152
0.00086835
0.00086932
0.000878404
0.00088714
0.000872448
0.0008776
0.000867317
0.122877
0.113707
0.0816451
0.101811
0.0629304
0.0568452
0.0883453
0.101219
0.062616
0.10402
0.0816736
0.111349
0.109454
0.0641368
0.111084
0.0994737
0.110742
0.0451607
0.00094788
0.00096482
0.000971584
0.00093474
0.0009536
0.000971145
0.000977114
0.000977747
0.000965892
0.0010287
0.000994218
0.00098197
0.000994969
0.0010098
0.00102787
0.00102215
0.000858108
0.000843537
0.00084222
0.000865818
0.000880159
0.000858751
0.000851558
0.000857994
0.000826806
0.000825708
0.000874046
0.000832407
0.00087351
0.000844491
0.000879899
0.00085313
0.000853919
0.000852997
0.000876581
0.000860504
0.000852385
0.000889143
0.000869246
0.0008658
0.00084505
0.000898009
0.000899838
0.000864227
0.000885294
0.000976579
0.000853753
0.000936666
0.000837687
0.000583818
0.000848541
0.000893391
0.000859144
0.000815065
0.000922526
0.000745383
0.00084898
0.00086582
0.000961647
0.000995654
0.000886739
0.000890154
0.000884981
0.000879705
0.000879264
0.000880785
0.000880801
0.000900689
0.000891855
0.000887052
0.000890082
0.000891554
0.000883803
0.000872973
0.000886693
0.00088476
0.000899575
0.000889019
0.000895891
0.000893487
0.085594
0.0866243
0.0810026
0.0533952
0.0678942
0.0601609
0.0820723
0.0702299
0.0723586
0.0462118
0.0474682
0.0711016
0.0654135
0.0708147
0.0771611
0.106517
0.0789198
0.0941842
0.0889387
0.0944907
0.105377
0.0900307
0.096217
0.0893848
0.108405
0.0967688
0.104793
0.0913083
0.0480504
0.0481788
0.0481124
0.0821962
0.0948617
0.000908799
0.000909267
0.000896489
0.000946995
0.000913376
0.000909299
0.00086319
0.000886792
0.000887491
0.00087915
0.000882632
0.000895876
0.000897046
0.000892721
0.000877167
0.0625924
0.0466576
0.0437186
0.0418482
0.0728391
0.0464084
0.0576373
0.0681603
0.0786118
0.000882201
0.000889087
0.000883053
0.000881941
0.000893565
0.000881837
0.000880841
0.000886998
0.000886739
0.000874333
0.000870899
0.000854132
0.000868484
0.000886199
0.000881619
0.000868483
0.000844617
0.00085394
0.00089803
0.00088658
0.000885095
0.000833471
0.000720705
0.00105462
0.000666664
0.000753884
0.00105062
0.00193732
0.000859604
0.000675473
0.00047816
0.000705396
0.000541812
0.000758758
0.000827874
0.000423355
0.000639706
0.000776957
0.000834939
0.00173893
0.000861845
0.0019119
0.000822424
0.000840729
0.000785109
0.000903272
0.000955202
0.000863325
0.000897907
0.000930708
0.000878065
0.000840128
0.000801739
0.000805373
0.000801824
0.000900069
0.000888765
0.000926228
0.000912288
0.000883286
0.00088209
0.000888987
0.000864811
0.000925093
0.000808864
0.000895974
0.000930092
0.000802584
0.0125413
0.0190163
0.0203736
0.0169657
0.00535276
0.0205995
0.000197308
0.000544324
0.0190339
0.00968289
0.0258074
0.0146078
0.0125487
0.00124998
0.00222031
0.0101182
0.0028909
0.00479
0.00142443
0.00205301
0.00232595
0.00302013
0.00297647
0.0110443
0.00208704
0.00603246
0.00181116
0.00179565
0.00163691
0.00185344
0.00249313
0.00176107
0.00200322
0.00423087
0.00204197
0.00276189
0.00409545
0.00223252
0.00281639
0.00283424
0.0027017
0.00217522
0.00216551
0.00219778
0.000883607
0.000874541
0.000968006
0.000877562
0.000870887
0.00106558
0.000900344
0.00089697
0.000882992
0.000890222
0.00106717
0.000890338
0.000849541
0.000848295
0.000859776
0.000857287
0.000816941
0.00085553
0.000861914
0.000861951
0.000850283
0.000821682
0.000868311
0.000835386
0.000859454
0.000858084
0.0594907
0.0383755
0.0494055
0.0588848
0.0530477
0.0391081
0.0478134
0.0498791
0.049888
0.0613778
0.062504
0.0586995
0.0608227
0.0175788
0.00661508
0.0074837
0.00848179
0.00798924
0.0171849
0.00473583
0.0228031
0.00690982
0.00702005
0.00995518
0.00629133
0.00406395
0.00521188
0.00825502
0.00975627
0.00709403
0.0121432
0.016956
0.0248526
0.00580464
0.00458031
0.0182026
0.016408
0.0321192
0.0138991
0.0177969
0.0233485
0.00651088
0.0170594
0.00663302
0.00670747
0.00848471
0.00533631
0.00803093
0.00586665
0.011638
0.00633808
0.00405583
0.00451567
0.0105062
0.00545021
0.00470917
0.00567186
0.00710963
0.185824
0.182907
0.151882
0.155854
0.189492
0.180987
0.176524
0.226694
0.217508
0.218986
0.247437
0.000837719
0.000828578
0.000837075
0.000838978
0.000833378
0.000836874
0.000836059
0.000832895
0.000833184
0.000831976
0.000836504
0.00083853
0.000833581
0.000522669
0.00144333
3.04667e-06
0.00515328
0.000376164
0.00119415
0.000455104
0.000451538
0.00124467
0.00131267
0.000955881
0.00107833
0.00125789
0.00105388
0.00137679
0.000924263
0.00106273
0.00112016
0.00135092
0.000976717
0.000833756
0.000935082
0.000732535
0.000774826
0.000651971
0.000443447
0.000985878
0.000694214
0.000678749
0.000921196
0.000673553
0.000780976
0.000785444
0.000842279
0.000844978
0.000795955
0.000757614
0.000838753
0.000825925
0.000857674
0.000840238
0.000854597
0.000841545
0.000864485
0.000855829
0.000836662
0.000830218
0.000842715
0.000846729
0.000931461
0.000852545
0.00086188
0.000927893
0.000924447
0.00093934
0.000914078
0.000913581
0.000933293
0.000942393
0.000925798
0.000935453
0.000930384
0.000917653
0.000935206
0.000913854
7.97158e-05
0.0010536
0.00108311
0.000501697
0.000801679
0.000908548
0.00087511
0.000988408
0.00093752
0.000908323
0.000918777
0.000604977
1.66874e-05
0.00090873
0.00097479
0.000622923
0.00107891
0.00059929
0.00157863
0.00178943
0.000581502
0.00244838
0.00379753
0.00280697
0.00302155
0.00699337
0.00561191
0.00446473
0.0068324
0.0094364
0.00710335
0.00884952
0.0113368
0.00662938
0.00697144
0.00856053
0.00956921
0.00710067
0.00889233
0.106316
0.257943
0.0750564
0.123031
0.0974593
0.212042
0.0471102
0.045435
0.220424
0.0432677
0.139867
0.283532
0.15598
0.134372
0.167018
0.12242
0.0357848
0.100184
0.179513
0.0599732
0.20705
0.149256
0.0787734
0.0373268
0.0952641
0.199449
0.201653
0.00384349
0.011069
0.0113284
9.79749e-05
0.00511856
0.0758967
0.0231497
0.0625411
0.00925708
0.109978
0.0197193
0.0984228
0.172905
0.133418
0.0857999
0.0907962
0.181173
0.0826401
0.131595
0.0444101
0.162042
0.154838
0.113909
0.130116
0.226325
0.185548
0.16254
0.176728
0.214282
0.188201
0.110114
0.152977
0.124488
0.114993
0.143295
0.264759
0.258499
0.182778
0.00871718
0.0123352
0.0171477
0.0101592
0.00722022
0.0103034
0.00466188
0.0124304
0.00434248
0.00994353
0.0190135
0.0170079
0.0153987
0.0122076
0.0132452
0.0104022
0.0140623
0.00717345
0.0208598
0.0156471
0.0693432
0.0760221
0.0502929
0.0460341
0.049764
0.0374143
0.0446721
0.0628593
0.0882262
0.0795001
0.0237555
0.0641512
0.0881878
0.0643531
0.0103021
0.000355441
0.00333379
0.000295359
0.000826998
0.000751315
0.0077093
0.000982568
0.00498933
0.00650947
0.00725589
0.00783572
0.00113232
0.00108513
0.000859069
0.00128997
0.00295563
0.00282881
0.101473
0.128268
0.120271
0.127994
0.151179
0.111323
0.187927
0.0255605
0.190381
0.0742124
0.0447372
0.0107265
0.0422137
0.0554939
0.116742
0.025401
0.122837
0.080269
0.0335496
0.0439032
0.0122745
0.0394093
0.000782277
0.000796969
0.000604094
0.00060479
0.000792067
0.000791526
0.00078899
0.000733234
0.000775463
0.000862851
0.000732995
0.000773674
0.000725443
0.000709601
0.000721556
0.00067086
0.000729043
0.000788419
0.000776477
0.000725782
0.00137584
0.00442182
0.0111696
0.000927625
0.000355407
0.000627275
0.0118731
0.000179408
0.00340488
0.000802125
0.0008175
0.00477853
0.00075926
0.000812027
0.00519394
0.234657
0.346161
0.24295
0.413153
0.328262
0.428602
0.400584
0.188101
0.00381067
0.00228836
0.0072645
0.00612257
0.00640154
0.00171966
0.0031202
0.00180939
0.00633233
0.00483931
0.00178839
0.00463329
0.0226719
0.0321153
0.0987584
0.0674267
0.0258303
0.0396949
0.0959555
0.0969616
0.0918927
0.0924733
0.0144619
0.0905798
0.0941389
0.0188795
0.0727947
0.0452155
0.0462869
0.0583056
0.000776526
0.00168851
0.00199157
0.0024465
0.00220745
0.000736447
0.000988206
0.0017821
0.00162524
0.00205782
0.00296126
0.0013702
0.00120696
0.00223816
0.00117903
0.0025956
0.00307227
0.00152432
0.0225475
0.023077
0.0326796
0.0332582
0.0299192
0.0312186
0.0180588
0.0221835
0.0256453
0.03592
0.0337053
0.0235486
0.0413654
0.0238197
0.0335703
0.0345398
0.0315096
0.0217301
0.0211109
0.0321958
0.0341667
0.0196088
0.000919386
0.000912783
0.000925145
0.000937027
0.000917334
0.000929016
0.000922138
0.000910932
0.00091935
0.000927101
0.000933082
0.000926775
0.000926962
0.00092127
0.000925942
0.000919306
0.505238
0.49243
0.368894
0.453095
0.358416
0.533947
0.275917
0.265618
0.20042
0.192517
0.193083
0.199675
0.442454
0.226451
0.258831
0.208136
0.31914
0.306086
0.0280236
0.0479425
0.0436773
0.0268918
0.0157451
0.00935248
0.0239689
0.0283777
0.0368948
0.0308557
0.0171218
0.0130612
0.0117165
0.0144048
0.0250544
0.0179546
0.00219101
0.000738178
0.000708572
0.000716929
0.00110576
0.000762107
0.000772867
0.00078541
0.000581959
0.000518703
0.00307246
0.00229598
0.00413954
0.000141052
0.000685555
0.000571013
0.000661945
0.000700635
0.00172515
0.00342171
0.0508046
0.051043
0.0471499
0.0313931
0.00952039
0.0301646
0.00376474
0.0257151
0.0319225
0.0423873
0.0107357
0.00930266
0.0202061
0.0229724
0.012399
0.0138055
0.0266469
0.0161425
0.0128033
0.0154882
0.0282658
0.0179844
0.00632158
0.0142305
0.00718432
0.00883801
0.00626341
0.0131122
0.0684518
0.0565265
0.0399165
0.0626918
0.0762877
0.0287052
0.0211052
0.0531391
0.0625007
0.0607658
0.0225997
0.0175095
0.0390489
0.041327
0.0350854
0.0255618
0.0334689
0.0134342
0.0121986
0.00145409
0.0128201
0.0122439
0.0142989
0.013773
0.00994031
0.0117387
0.0059937
0.00509466
0.00688017
0.00440895
0.0159364
0.0156407
0.00898102
0.0136786
0.0123067
0.00885941