/*--------------------------------*- C++ -*----------------------------------*\
  =========                 |
  \\      /  F ield         | OpenFOAM: The Open Source CFD Toolbox
   \\    /   O peration     | Website:  https://openfoam.org
    \\  /    A nd           | Version:  10
     \\/     M anipulation  |
\*---------------------------------------------------------------------------*/
FoamFile
{
    format      ascii;
    class       volScalarField;
    location    "15";
    object      omega;
}
// * * * * * * * * * * * * * * * * * * * * * * * * * * * * * * * * * * * * * //

dimensions      [0 0 -1 0 0 0 0];

internalField   nonuniform List<scalar> 
75457
(
32.0927
33.793
25.5958
20.0428
23.8667
28.9391
27.5481
28.9391
16.7312
16.6166
15.6996
19.1306
18.8933
16.8766
2.38826
2.37011
2.0336
2.38962
2.31643
2.0476
2.2086
2.22985
2.40018
2.37632
2.2916
2.56039
2.5878
2.23866
2.27769
2.47059
2.15555
2.43261
2.43949
2.02648
1.98762
2.07138
2.00163
2.4915
2.39335
2.02331
2.06415
1.99914
2.01575
2.8337
3.22253
2.47832
2.37228
2.85977
6.30339
3.57625
5.05669
5.78804
14.2014
4.85026
3.88862
4.09345
8.09361
9.01994
8.15809
15.715
12.3456
6.78029
8.73044
7.1856
7.0664
7.99623
6.66875
8.28896
8.5032
13.937
8.20043
14.5496
7.76662
7.73931
8.07054
7.14589
7.5939
14.1683
10.0795
7.1
16.408
10.9944
10.9463
7.59987
5.98045
5.74361
6.4688
6.76963
11.8355
14.3181
7.0285
6.23135
11.5355
6.50927
5.69673
3.38229
3.67924
3.91558
24.0659
6.8529
8.41216
11.0426
22.1298
20.009
39.5989
41.1064
20.8289
18.6951
20.4568
7.25788
5.63439
15.7211
15.6783
13.4296
5.32328
9.84971
22.1513
9.22032
8.61325
24.2457
6.0379
6.75659
6.70091
6.41322
7.60488
7.58323
15.3634
6.45535
11.4466
7.20138
6.85896
6.92397
6.55935
6.07899
3.33354
15.3469
7.04444
5.46023
5.72154
24.7024
4.41045
5.39842
6.65488
4.34088
4.56346
5.97927
7.10326
8.2476
17.8945
5.09018
31.6778
9.31391
5.13263
4.15146
8.98599
13.7622
4.21225
27.0868
5.30048
7.06703
27.5259
5.35075
8.26527
6.04618
6.2613
6.53336
6.22532
6.40065
5.79405
5.79278
6.07686
6.29529
6.02297
6.14468
5.96044
5.82154
8.69393
7.92959
7.59234
11.6311
4.73331
22.3351
3.86632
12.1275
28.1822
5.16182
3.80719
9.60876
17.8608
39.4645
7.90501
7.89852
8.54196
13.0045
6.36621
24.6247
3.99073
4.58409
4.04965
4.38602
3.89061
7.44655
8.64277
12.8509
6.21443
7.14652
12.8487
11.7324
12.6182
12.7417
11.1619
11.4448
23.6543
26.3958
9.58227
11.0212
25.2872
11.052
27.6695
25.8111
26.4709
8.52607
12.2134
23.3109
10.6513
11.4103
27.7321
13.1562
7.86603
20.004
5.04612
4.98129
19.7071
8.34407
9.54926
7.23689
9.34232
4.49406
4.795
5.03439
5.27673
9.07209
21.6066
7.20042
16.5781
10.1301
6.99068
7.33888
10.9341
24.7749
10.5148
21.9017
9.93969
19.796
8.05159
14.0825
6.29209
4.53404
5.36663
3.24394
3.70302
4.08917
4.54456
6.06389
10.1292
18.553
11.8337
30.8472
17.6011
20.3463
27.1809
17.4569
6.01978
6.16942
10.2053
6.20334
10.6114
11.4544
17.4327
10.1865
9.48119
16.1829
9.74934
15.3369
7.41984
14.6971
6.78654
4.17481
4.15708
5.44968
5.0305
5.44783
4.92494
17.4917
15.4722
24.0406
15.8392
8.45746
8.3865
22.3857
8.34304
8.71959
21.7116
3.02033
2.98124
1.80272
21.7116
2.57673
2.47688
21.7116
1.68635
2.58025
4.21206
2.36243
9.63856
9.12415
7.17762
8.74948
10.7769
22.387
10.388
4.98247
5.05251
12.3994
22.387
4.54059
4.66879
5.20759
8.17573
13.0266
11.0594
9.81276
11.313
26.0452
5.70435
5.86084
8.79644
7.96504
31.4965
9.96898
8.46165
30.0434
6.76923
6.13938
18.5105
6.5761
11.7114
7.85042
21.7459
5.99549
6.02323
8.30799
6.43496
4.81271
9.33198
8.22946
10.0569
27.8376
8.31229
5.51181
15.8082
22.8596
16.1789
22.344
4.3614
4.0875
5.35817
5.01802
7.44067
6.37851
11.0744
6.19811
6.78844
8.70016
23.285
12.6857
11.4762
7.6382
18.8741
6.66953
6.9229
7.45252
15.9208
15.9208
18.323
4.18621
8.72885
8.85424
4.93353
4.35726
8.34718
4.52196
4.57195
4.4216
4.41167
4.58656
4.60952
4.51078
4.57097
4.59884
4.64154
4.52302
4.43113
4.51732
4.48507
4.44924
4.55748
4.44247
4.41583
4.36207
4.36067
4.43968
4.37613
4.45603
4.38794
4.49355
4.47607
4.36094
4.42473
4.40911
4.46038
4.44849
4.25614
4.32127
4.33637
4.37311
4.31375
4.34971
4.38541
4.43461
4.26042
4.30363
4.26063
4.25521
4.32272
4.37006
4.33642
4.41909
4.3437
4.36764
4.33923
4.37192
4.3283
4.35925
3.73466
2.8413
2.85665
2.84604
2.83983
3.54201
2.86742
2.85173
2.7347
3.81347
2.69006
2.78217
2.78801
2.83323
2.65688
3.42022
29.4769
19.9334
16.845
20.0187
12.8331
12.92
13.3501
15.0054
12.7804
13.17
29.4199
31.4224
27.4223
18.4402
13.4273
10.7139
3.57239
3.51488
3.77472
3.91432
3.71169
3.63032
3.56059
3.51383
3.60228
3.63248
3.66291
3.85454
3.82721
3.60411
4.68792
3.72866
3.64823
3.65474
4.55598
4.61315
4.57903
4.50789
4.47794
4.51532
4.52838
4.5442
4.54253
4.52547
4.55697
4.62791
4.54454
4.58463
4.60715
4.62429
5.83166
5.59714
5.91709
5.59336
5.36371
6.0148
6.36179
6.03707
5.86424
6.03734
5.88027
5.75865
6.01504
5.74027
5.81218
6.24691
6.34105
4.7143
4.86806
4.67417
4.70512
4.62745
4.5955
4.68336
4.80602
4.60589
4.50283
4.72669
4.55908
4.49648
4.50912
4.57846
4.44504
4.62257
4.14516
3.70068
4.0725
4.70835
3.39765
4.17874
3.85515
4.20162
3.5953
3.43535
3.91356
4.83679
4.51211
3.7852
4.04506
3.89977
4.75759
4.91384
2.18534
2.17508
2.21667
2.42527
2.06418
2.52368
2.19241
2.17504
2.1814
2.65026
2.28227
2.18194
2.2216
2.11122
2.57121
2.53243
2.74229
2.51268
2.82415
2.80365
2.80534
2.62115
2.5472
2.83808
2.85798
2.8293
2.59594
2.44008
2.46363
2.76089
2.59272
2.72582
4.25185
4.2693
4.29341
4.49786
4.54682
4.28914
4.29307
4.4949
4.42328
4.46951
4.26936
4.53077
3.9409
3.35101
4.2651
3.21566
4.17833
3.81761
4.12481
4.09621
4.09672
2.94057
2.82445
2.94075
3.21565
3.20055
2.9529
3.21876
2.00372
2.51257
1.97148
2.3496
3.35441
3.04252
4.20327
2.90487
2.86558
2.40867
2.19829
2.08097
3.697
2.18198
2.31334
2.53412
3.64833
3.62809
3.65275
3.6863
3.80696
3.70352
3.65048
3.60394
3.59002
3.67838
3.70886
3.68165
3.69683
3.76463
3.7689
3.68101
3.64493
3.719
3.59211
2.50371
2.47706
2.21158
2.79734
2.4408
2.71657
2.62428
2.31363
2.47595
2.16835
2.67741
2.5571
2.44024
2.45343
2.97215
2.73337
2.80639
2.89764
2.73354
2.80403
2.5845
2.51009
2.59707
2.40692
2.45096
2.73441
2.55884
2.4971
2.54238
2.33195
2.39048
2.52275
4.99929
6.20498
6.3619
3.93306
3.94064
5.38299
4.6831
3.33647
3.65534
6.9111
5.55866
5.80144
5.81866
6.5329
6.50663
6.25986
6.62198
6.00791
6.31551
5.79958
5.97791
7.07701
8.76078
8.58123
7.46433
8.31458
8.24505
7.00408
6.40468
7.4578
7.42658
6.92464
2.7366
2.77573
3.00566
2.86664
2.86812
2.66882
2.80328
2.83197
2.81544
3.49115
3.90419
4.36571
2.6225
3.811
5.18842
3.58296
4.42672
2.32758
3.00014
4.35018
5.64469
3.09814
3.41916
7.70681
5.38631
3.7586
7.02815
3.77771
4.73541
4.37398
4.55059
5.71572
5.62306
6.51491
7.0605
7.45731
7.37448
6.12548
7.53767
6.83369
7.54296
2.08498
2.14194
1.87155
1.90127
1.95485
1.90807
2.03182
2.05954
2.49342
2.00389
2.18279
2.24927
1.86857
1.94018
2.32444
1.9346
2.17503
2.14255
2.06395
2.47349
2.55157
2.01437
2.60539
2.32519
2.79537
2.3514
2.32524
3.00076
2.85297
2.21275
2.58829
2.82896
2.63481
2.60169
2.95129
2.23299
2.41835
3.16387
2.69668
2.31053
2.0815
2.10906
2.83745
3.63141
2.41529
2.48121
2.97564
3.38901
2.42925
2.42602
2.60216
2.29563
2.29753
2.79024
2.89898
3.33885
2.35229
2.3421
2.53886
3.37056
2.48064
2.40071
2.66093
2.37623
3.89471
4.85736
2.1932
2.36757
2.56047
2.82094
2.32219
2.41931
2.75554
3.50802
4.17382
3.76311
2.49194
2.52936
2.30063
2.98447
2.59558
2.78354
2.7625
2.52109
2.60351
2.57279
2.46391
2.37622
2.56819
2.55076
2.64738
2.64404
2.39114
2.68236
2.70937
4.4438
4.7317
4.84004
4.53067
4.68517
4.73617
4.84743
4.60658
4.69661
4.8092
3.05457
2.68938
3.05769
3.42711
2.54434
2.52318
3.37982
4.09258
2.61375
3.34042
3.1941
3.20128
3.60327
2.59906
3.48151
3.20466
2.5247
5.75334
6.06424
5.90736
6.26237
5.95607
5.66231
6.20733
5.90747
5.73866
5.69604
5.84924
5.73521
6.02497
5.72033
6.0949
5.58339
5.67481
5.50374
5.66601
5.52294
4.76803
4.83138
4.74869
4.77804
5.02223
5.15275
5.60144
4.9161
4.92487
4.79521
5.47878
5.53081
4.75944
4.86446
5.09184
5.81733
9.10245
7.67207
6.88116
7.53658
11.7493
9.21999
12.0383
11.5516
9.62309
9.37012
11.8585
10.6441
10.3385
2.88211
3.09871
2.89109
2.74066
2.66604
2.71588
3.04836
2.92661
2.74688
2.77496
2.51473
2.80751
3.8514
4.25217
3.98767
3.89613
4.18631
4.09901
3.76491
3.73374
3.70072
3.77086
3.79669
3.7658
3.85146
3.82401
3.91735
3.84945
4.02375
3.85362
3.84773
4.03544
4.01369
3.79595
3.78676
4.01089
2.98433
3.43857
3.83097
3.54957
2.80823
2.81309
3.40899
2.66573
3.01539
2.9772
2.75138
2.73258
2.98343
2.79782
4.83305
5.18503
5.3794
4.98827
4.88102
5.08449
4.58786
4.43171
5.00435
4.93254
5.19673
4.8945
5.68354
5.40381
5.56881
5.261
4.49368
4.91497
4.63266
4.40263
4.39392
4.47996
4.41478
4.3845
4.41322
4.50564
4.58709
4.47949
4.5596
4.56773
4.80286
4.6431
13.6094
11.83
12.7257
12.1041
14.4842
11.6616
5.78687
6.37372
5.94647
6.33767
6.1289
6.87844
8.83121
10.8398
11.1756
8.43299
10.3215
10.4512
6.81638
10.0643
6.6753
7.63102
7.34506
7.07473
6.8375
7.1537
7.73175
7.37585
6.90011
7.3136
7.38385
7.05748
7.49272
6.96513
7.13337
5.01144
5.33399
5.3165
5.35076
5.96342
6.33305
7.20734
6.0873
7.54488
7.97964
7.53351
6.72872
8.54455
9.0519
3.73467
4.133
3.62705
3.72003
3.59748
3.80701
3.42439
3.23818
3.95326
3.47718
3.61419
3.23052
3.38841
3.22083
3.24572
3.1967
2.38718
2.43138
2.32637
2.35242
3.59665
3.68235
2.1898
2.86908
2.89334
2.19563
3.49515
3.29697
4.10993
3.23286
3.24036
3.75815
3.64669
4.37591
4.50471
2.66883
3.33606
3.02073
2.86046
2.758
3.84631
3.14713
3.35703
3.59641
3.41747
2.59963
2.63298
2.90813
2.67963
3.56734
3.34169
2.77187
3.08833
2.86307
2.97338
2.63297
2.74253
3.08309
2.79208
2.77968
8.25933
7.18828
7.20153
8.12738
8.51424
7.54614
7.38128
7.57566
7.54294
7.47038
7.61319
7.44581
8.21808
7.98623
8.07402
8.32745
8.04045
7.83702
7.3994
7.85792
3.11837
3.07967
3.04306
3.01263
3.04618
3.2031
2.96055
3.04636
3.18173
3.05451
3.02278
3.01675
4.79111
7.08323
24.4865
5.42043
18.7647
6.39639
11.4472
20.8859
22.4793
5.15421
11.5927
14.3713
24.0801
6.67837
11.4504
3.97307
8.39316
5.29006
4.70728
8.18759
9.62504
7.57351
4.65184
3.96172
3.8842
12.461
14.5135
13.7573
15.3451
3.84307
4.00741
3.85024
3.70528
3.825
5.68163
6.34251
5.28156
2.00004
2.30768
1.85961
2.00136
1.86402
1.8109
1.77648
1.85982
1.82808
1.83075
1.91372
1.85078
1.83863
1.83171
1.84408
1.8387
5.56332
5.53193
6.01177
5.85955
8.40902
7.34297
5.41997
6.46145
7.50072
7.62721
8.39892
7.47422
3.83619
11.7051
13.7042
9.74491
12.5499
4.60278
2.81202
9.68014
2.89421
8.51056
16.7407
4.782
8.18281
4.0941
9.96448
18.9408
10.1248
2.73718
4.41672
5.18719
19.9066
4.51527
6.62435
8.06744
12.7436
4.14979
8.05145
3.71542
21.1971
5.85481
7.10176
25.3639
5.3687
8.47172
7.77763
7.74845
16.3113
5.614
6.57687
11.2085
15.2531
4.47199
3.96972
8.69247
3.87152
8.79725
16.2424
8.58933
3.48335
3.8812
15.0806
9.35873
3.82764
3.53875
4.37089
3.65582
2.6118
3.07092
2.77683
3.73615
3.87608
2.34429
2.475
2.50017
3.45658
4.27858
2.84887
3.08517
2.47302
3.39754
3.54474
4.34603
3.67793
4.09607
4.13201
3.9153
3.95254
4.68011
2.78999
3.62906
4.25602
3.98482
5.96214
8.53984
5.25819
11.8942
11.5777
10.985
10.7645
12.2764
10.6206
10.1892
10.7773
11.1103
11.0532
12.3956
12.9163
10.206
10.4347
10.814
11.2207
10.9104
12.3866
11.6159
10.8033
8.1483
10.1447
6.9682
6.77845
10.9533
10.9783
18.2183
15.8152
6.61866
7.02078
8.06635
10.3911
11.4098
15.7261
8.14492
10.1709
6.52543
6.60186
7.36815
5.12969
4.45176
4.36941
4.03624
11.2781
15.27
9.93371
12.4652
4.84436
4.4043
11.4757
7.38332
4.72297
7.0605
13.1607
8.25198
6.36905
11.2808
6.33076
11.2623
2.30402
2.27929
2.6963
2.34785
2.6637
9.0768
11.6033
5.09776
5.47244
3.74645
3.4769
2.70259
3.49392
3.26094
6.44077
3.15582
2.60178
2.34167
3.19864
5.7242
5.70581
6.42221
6.61172
6.50273
6.04537
6.31503
6.15353
6.13864
7.65064
8.56518
9.70727
9.67611
6.92419
6.80286
7.42598
24.4812
22.8347
24.049
26.0453
30.443
27.4807
30.3359
43.4261
40.992
36.5482
32.3049
31.6981
44.7036
33.7525
32.5194
31.2403
38.9018
38.7571
39.4792
29.3601
7.95183
9.57856
7.821
10.1026
6.26188
6.67527
4.2525
5.27258
11.9344
8.13274
16.9918
9.28778
4.66834
4.44594
14.0566
11.0414
16.9467
8.78585
19.0074
6.52943
30.6402
37.5223
41.4725
55.8865
42.0922
29.8296
24.6174
39.5086
47.1108
41.9993
45.3356
35.6073
62.5737
41.0425
79.0106
80.9926
55.2754
3.29607
12.1535
7.02691
32.3309
6.14045
5.91163
8.59434
7.8114
39.8475
7.6369
2.03426
21.4615
12.1231
11.5939
15.2061
14.5436
13.1314
11.6023
10.9361
10.6828
14.0159
15.1383
12.5949
12.9306
12.8401
14.1864
11.5747
12.8931
12.815
12.0095
15.4358
11.216
11.3262
5.80034
5.68964
5.48583
5.62345
6.31591
5.86495
6.30312
5.73471
5.51077
5.63066
5.58572
5.4682
5.40928
5.36152
5.82303
5.67843
5.59433
5.4947
4.8249
5.26088
4.81248
4.98588
5.09244
6.30988
4.77656
4.95614
6.08139
6.95641
5.13542
4.85064
5.07771
5.91297
5.16148
6.01534
6.43299
6.43395
6.07461
5.70905
6.54651
5.57261
6.33721
6.22884
6.3531
5.61023
6.23845
6.2195
6.25688
3.13748
3.21085
3.17127
3.3101
3.06969
3.02753
3.15163
3.1273
3.483
3.63785
3.12371
3.13741
3.18672
3.2971
3.49701
3.42069
7.12266
7.17575
7.31193
7.12003
7.08503
8.11385
6.97071
7.06701
8.47785
7.27768
6.59468
6.42232
7.12216
7.85539
7.68832
7.22337
7.25919
21.838
21.9962
16.7871
18.1164
19.6366
21.9354
25.1971
25.5063
18.64
19.7753
25.5626
30.1079
24.8683
26.6352
23.7594
25.1515
24.129
7.2782
5.7854
5.35373
7.70264
5.17727
13.4663
20.0663
5.30422
11.1461
11.2222
8.39762
10.2142
11.3638
5.69452
3.24042
10.2521
22.5995
4.18837
8.27239
6.79127
5.63501
4.63684
4.46832
6.87179
6.56067
5.2738
5.16423
4.9259
4.81618
4.7774
5.00125
4.6504
4.49205
4.85808
4.592
4.63805
4.86067
5.25989
4.6845
4.68271
3.83922
3.53037
3.25334
3.55647
4.08595
3.39866
3.31958
3.33512
4.31204
3.3022
3.44771
3.61685
3.78955
3.35571
3.18171
3.12655
5.45991
4.46509
4.86584
5.76307
4.8153
4.34075
8.99135
5.87122
6.2467
6.21037
14.26
8.22758
5.02652
9.10663
4.38021
7.32549
9.03437
13.9927
16.5427
10.2048
14.7221
17.0757
10.7388
15.4048
11.2862
7.89471
5.86333
4.56332
14.6544
9.77505
11.1278
3.04533
4.36613
11.4585
3.91055
10.4132
9.49787
3.81471
3.5132
3.2959
8.0971
5.56581
5.54098
5.49571
6.54439
5.6209
5.61517
6.38232
5.69697
5.60244
6.36688
5.64442
5.46106
7.6341
6.89858
10.2613
6.1686
6.91917
8.56594
10.5003
9.13703
7.99221
7.09323
5.55027
4.42531
4.51322
4.69644
8.38541
6.94806
7.25683
6.89656
6.49833
4.19121
6.17592
7.60632
7.68205
18.1992
17.6114
6.36884
6.44275
6.90227
20.6286
8.45431
12.1734
7.48604
3.31677
9.03572
14.7869
6.12954
4.82318
4.04982
9.66352
8.42846
14.2936
16.3616
6.69128
9.12893
9.9945
4.14923
6.10328
5.65583
4.39666
4.38057
9.52587
8.61213
10.0302
15.7125
6.92417
10.2682
4.40789
4.09989
7.72039
4.26024
5.02229
5.26204
4.55227
5.13335
4.71976
4.49023
4.38873
5.16596
4.30281
4.17255
4.18602
4.03391
4.02564
3.83596
3.90028
3.97012
3.94548
1.96729
2.00065
2.02225
2.00068
1.98645
2.12118
1.95002
1.94395
1.98997
1.96274
1.94092
2.10906
1.98526
2.05478
1.96001
2.05456
1.97794
1.99159
2.01973
2.32816
2.1581
1.98968
2.4528
2.1956
2.11841
2.11766
1.85102
1.68194
1.62802
1.87832
1.98233
1.61544
1.60373
1.7643
1.75772
1.60211
1.71333
1.66879
1.66784
1.6835
7.59264
8.61404
9.47773
11.1702
8.22468
11.0716
8.06292
7.25313
10.1005
7.92026
7.32343
7.65365
7.32206
6.78216
9.38291
8.01401
8.5696
3.94705
3.4656
3.95832
7.66137
6.33298
3.46842
3.75853
3.74577
3.30519
4.62749
5.12621
7.12009
3.37593
3.2914
5.29474
6.80929
2.78401
2.92099
2.91789
2.88317
3.11862
3.87947
3.07658
9.78408
7.5841
3.50448
3.15085
4.78611
5.62354
8.24061
6.05173
6.26511
7.13832
7.97518
15.2794
21.0859
10.7495
20.1598
4.38926
7.41401
4.17717
1.83828
1.78808
1.84143
1.79124
1.70514
1.84991
1.79566
1.76911
1.90022
1.97777
1.86964
1.82866
1.77847
1.83436
3.12582
3.15711
2.89472
2.84317
4.11999
2.64592
2.82476
3.757
4.45183
3.82551
4.75727
3.39803
3.1753
3.96364
2.59981
7.80323
3.7615
19.3013
22.6207
4.19998
19.3013
5.42118
5.28658
10.7413
5.91641
7.06289
5.51971
4.4154
4.07966
7.58276
4.46454
4.51144
6.08924
20.39
24.241
25.6167
20.3903
21.2806
21.4982
23.7105
19.6306
23.4754
19.5382
10.0161
10.686
7.68076
11.8495
4.30381
3.91056
3.51249
4.80858
7.19206
8.77402
10.4895
10.0347
8.79767
3.69548
3.86959
2.77528
7.99103
9.5289
3.86229
3.76241
3.65505
4.05691
4.13059
5.48208
4.42703
4.49504
5.21182
12.2309
5.16215
3.88041
4.17408
12.2309
8.54022
12.2309
5.3029
3.86789
3.81641
5.30153
5.41551
4.23164
7.99585
7.87156
7.45909
8.00131
7.59547
7.28372
7.66938
7.53802
7.09049
7.45166
7.15725
7.50047
7.77966
7.52914
7.15636
6.78201
7.02014
6.74239
7.22862
7.91932
7.88869
7.50203
7.75342
7.33373
7.24367
6.57448
6.08164
6.39708
6.13313
7.24319
7.29241
8.24503
7.86339
6.06717
6.05504
6.1883
7.18138
29.2615
29.9928
24.9817
23.6184
38.8025
31.9791
36.7126
30.9434
29.0109
45.8805
35.6812
37.556
37.195
44.015
58.1725
55.9102
4.68228
4.88375
4.87883
4.66053
4.62225
4.66619
4.69005
4.61038
4.81137
4.80562
4.55123
4.71934
4.56264
5.44964
5.18845
5.48996
5.47008
5.38957
5.09876
5.76467
5.5368
5.71561
5.47409
5.63346
5.7574
5.34452
5.49791
5.36518
4.87795
4.95076
4.75357
4.82694
5.15707
5.0668
4.736
4.76225
5.10713
4.91962
5.00946
5.04383
4.93406
4.95605
5.09184
5.26827
9.9591
9.91216
9.72889
9.10367
9.25572
9.61245
8.94515
8.78724
9.22931
9.37232
11.2152
11.0213
9.5064
9.18792
9.32362
9.40353
10.8549
9.75709
9.91509
9.73057
8.27026
8.09755
7.69836
7.30133
7.92862
7.7434
8.58684
7.90323
8.83406
6.61537
7.06796
8.66769
7.37952
8.14741
8.66482
9.65699
8.95455
8.85632
9.84747
10.0325
10.4416
9.3603
9.77217
10.7354
9.58655
11.4345
12.1998
11.5674
9.76892
8.97272
10.323
12.5708
11.0663
12.8427
11.9796
12.1897
10.1457
13.5956
12.192
11.159
10.7148
11.5608
12.4188
9.96824
9.72798
9.56533
10.3415
11.1166
3.29334
3.07532
3.04055
3.01683
3.44798
3.39694
3.34559
3.48491
3.53416
9.17707
9.57313
8.48642
8.52159
9.15277
8.35539
8.26536
8.70197
7.93604
7.77648
7.86228
7.82707
8.09693
8.87725
8.34318
7.89918
8.19003
8.3777
8.709
9.23821
7.88168
8.60697
3.75099
3.80444
3.74552
3.75668
3.77392
3.91392
3.81013
3.64665
3.79542
3.70219
3.79403
3.66606
3.80684
3.62497
3.63545
3.66926
3.70715
3.68408
3.70161
3.68491
4.98069
4.76949
4.87097
4.67823
5.01568
4.76723
4.84491
4.94289
4.87518
4.78267
4.81096
4.62398
4.6965
4.73946
4.69914
4.93204
4.83765
4.95225
4.63391
4.822
4.68806
4.92141
4.65419
4.51081
4.59764
4.61965
2.84866
3.05291
3.08958
2.90449
2.663
2.72579
2.48299
2.59489
3.0256
2.56356
3.07302
2.78319
2.70659
2.42685
2.4701
2.69418
2.4919
2.50063
2.48622
2.50348
2.52004
2.57059
2.56304
2.69945
2.5003
2.57059
3.23046
3.282
3.37192
3.36867
3.15193
3.18285
3.20473
3.66776
4.13401
3.66935
3.61021
3.22585
3.28061
3.30108
3.36365
3.33416
3.48222
3.28148
4.22615
4.30608
4.47922
4.2554
4.16457
4.395
4.41929
4.13239
4.14834
4.25293
4.33783
4.15164
4.08847
6.45824
6.9791
6.53083
6.21886
6.54001
6.93308
7.44606
6.7999
6.75338
6.42559
6.5854
6.99673
6.63773
3.56646
3.04369
3.42512
3.51398
3.32458
3.17223
3.37505
3.4093
3.37969
3.63467
3.61551
3.50032
3.60818
2.60656
2.27305
2.26854
2.30377
2.31337
2.58683
2.42886
2.5864
2.30174
2.31324
2.40652
2.39851
2.30025
2.30537
2.36592
2.32906
2.2574
2.30303
2.43682
2.45099
2.301
2.31936
2.51052
2.49476
2.76359
2.3758
2.45371
2.53705
2.36729
2.4648
2.391
2.5613
2.53875
2.49079
2.47565
2.50892
2.56565
2.55001
2.46973
2.44647
2.52633
2.59637
2.50491
2.53349
2.61308
5.32659
5.59216
5.75513
5.20718
5.46051
5.29656
5.56284
5.1953
5.19268
5.30479
5.19628
4.74795
4.6572
4.92046
5.10795
5.30369
4.85242
5.10091
4.93892
5.15645
5.17615
4.87052
4.88405
5.01078
5.57363
5.66646
5.71806
8.24421
5.69879
5.34865
5.45336
5.44536
5.54875
5.68753
4.60012
5.02449
5.21581
4.88429
5.94847
4.50182
4.87141
4.94767
5.40674
4.82096
5.10133
4.83204
4.87335
4.92906
4.69475
4.63554
4.67305
4.85791
5.11133
5.02077
5.21911
4.82792
5.06521
4.50724
4.57088
4.32433
4.36012
4.51699
4.65076
4.63334
4.67561
4.97143
4.97504
4.66038
4.5809
4.72099
4.82856
4.76532
4.67346
4.8306
4.82219
4.76732
17.117
15.8006
19.7465
14.2164
14.5046
18.3711
19.8413
16.3819
18.5636
17.3099
14.4892
18.6675
15.6231
4.13001
4.20525
3.92748
4.01254
4.06937
3.86723
3.82362
3.99816
4.02053
3.92082
3.86557
4.21156
4.10029
3.84224
4.06182
4.02394
4.50542
4.06304
4.6413
4.44653
4.02234
2.41515
2.42403
2.41254
2.46126
2.45064
2.42699
2.50106
2.50757
2.43424
2.36695
2.52306
2.54965
2.36895
2.42153
2.38061
2.43258
2.47436
2.46746
4.57303
5.48074
4.47593
4.79651
4.85577
5.20203
3.9557
3.78936
5.19192
3.96882
4.57838
5.58743
4.72773
4.61125
4.57744
4.34924
3.89536
4.4615
4.87603
3.91558
5.0805
4.5481
4.22163
3.86699
4.40975
5.03803
5.06466
1.78211
1.85124
1.86611
1.75039
1.88028
7.96864
8.17893
8.42217
6.33082
10.0385
6.12156
11.3089
13.3972
14.6818
12.0202
16.0862
12.8113
11.2688
13.5546
7.69096
5.78993
5.59129
5.88575
5.76522
4.69181
3.97339
4.45718
5.29669
4.68536
4.04724
3.55258
5.22618
5.79788
3.64548
3.74661
4.38103
4.44271
4.18638
4.91552
6.3186
7.29264
6.5498
9.71451
12.7782
2.23412
6.8245
3.38721
4.39018
18.9383
31.2468
21.3143
21.4362
9.78861
4.58297
7.95124
19.9398
18.3185
6.89841
4.93125
5.18451
4.25829
4.07703
4.21193
3.88878
4.00624
4.53846
5.64057
5.27141
3.59541
4.36381
5.15485
4.47395
5.16967
4.01278
4.87207
4.73357
3.70664
3.77599
4.63525
3.4697
4.57748
5.0318
5.37642
5.13108
3.53772
3.42076
3.5652
3.61689
4.08539
4.04008
9.59067
10.0028
9.90592
9.29496
9.41819
9.48525
11.3519
9.13501
9.91213
10.6943
6.78804
6.71874
6.89941
7.87864
10.1836
8.28754
10.2496
10.1122
6.94198
8.07293
5.19401
7.04455
3.63097
3.6205
3.59792
3.56219
3.56472
3.50056
3.58319
3.62076
3.58979
3.59182
3.53643
3.49118
3.48722
3.59847
3.57565
3.5225
3.55312
3.52493
3.44209
3.49051
5.72455
5.93026
7.04137
4.65018
5.61757
4.74756
7.14219
5.09274
5.48156
4.46084
4.52661
5.43779
4.67639
4.52364
4.86887
9.01206
8.73638
8.72979
9.04966
10.0459
7.95494
9.36783
9.51228
3.03516
3.15183
3.12085
3.14719
3.10611
3.10068
3.13955
3.22814
3.06459
3.06372
3.16853
3.08232
3.57552
3.67209
9.8491
5.40879
3.4063
4.04353
9.33989
6.955
9.58098
10.0669
15.2253
7.51958
11.5438
17.3786
7.17408
4.46882
4.45393
4.88787
2.99469
3.04185
3.00763
3.02157
3.08526
3.03946
3.00027
3.16595
3.08528
3.07751
3.12856
3.18744
3.05503
3.04065
3.06973
3.1763
3.22529
3.10531
1.88293
1.88475
2.03721
2.08252
1.9469
2.03364
1.86616
1.88419
1.93311
2.15502
2.00969
1.92171
2.35537
1.95526
2.00258
2.02083
2.0294
1.91469
1.9209
2.09003
2.02022
1.9022
15.826
14.4472
16.3196
18.9283
15.1687
18.0745
15.9101
14.3574
17.0395
18.8471
18.4888
17.0446
16.7716
15.6473
17.0034
15.2593
6.48488
6.50642
6.30009
6.92159
5.98004
5.7024
6.45248
5.72183
5.34071
5.50443
5.75138
5.66158
5.58549
5.32205
5.458
5.67648
5.35689
5.41092
2.27392
2.71904
2.67145
2.29808
2.13897
2.04154
2.41509
2.49286
2.40422
2.28459
2.1768
2.19697
2.11259
2.07103
2.22181
2.12099
3.89817
3.86895
3.94649
3.8874
3.73473
3.89231
3.87357
3.88665
3.90998
3.89743
3.86119
3.91387
3.9014
3.87468
3.82325
3.81736
3.78517
3.78211
3.73038
3.74047
8.80992
8.60921
7.61771
6.59325
5.00922
7.12544
5.73128
6.23211
6.69331
7.94573
5.07699
4.84729
5.85765
6.06024
5.32902
5.60371
3.91544
4.03114
3.44217
3.52244
3.1656
3.54515
2.83714
3.41727
2.87454
2.66396
2.80722
2.66694
3.60246
3.04673
2.55075
3.27868
3.99951
2.15524
2.08396
3.47857
3.24326
2.99267
2.02805
1.95161
2.68683
3.14983
2.28784
2.18226
2.66754
2.82558
2.83494
2.84454
3.06782
3.11447
3.06422
3.12834
2.80749
2.88034
2.69116
2.76451
2.79211
2.74724
2.97849
2.97379
2.72533
2.87071
2.94412
3.73014
3.9925
3.37607
3.11572
4.45807
4.06794
3.4752
3.46812
3.88571
3.10423
3.14952
3.05559
3.07342
3.21827
3.24112
3.08731
3.19944
3.15131
3.61852
3.33435
3.21389
3.23894
3.30463
3.31332
3.27201
3.20629
3.32758
3.3077
3.24726
3.32305
3.23867
3.25356
5.9302
5.63075
5.69502
5.83181
5.56941
5.75143
5.8531
5.7724
5.68688
5.70629
5.68532
5.5274
5.50979
5.51555
13.3021
13.6478
17.8938
17.4836
18.3757
18.4896
13.214
11.8369
15.4284
16.3644
13.5943
16.5859
14.4314
15.0427
1.90958
1.94517
1.98231
1.97735
2.28982
2.4567
2.27712
2.41708
1.96731
2.18483
2.1601
2.14981
2.26491
2.1258
2.01179
4.84138
5.64522
3.89729
2.39616
4.20808
5.41913
5.94255
3.60452
3.98571
3.62889
3.67838
4.01323
3.69682
3.75587
3.61977
3.47478
3.74338
6.17971
6.45122
5.23712
5.49847
4.09942
3.91141
4.9746
5.55025
3.83437
3.76604
5.34838
3.71333
3.64765
3.69253
3.59993
3.66997
3.54137
3.68954
3.6167
3.5695
3.62447
3.4343
3.20641
3.23502
3.54657
3.6454
3.77377
4.39755
3.26632
3.19092
3.19043
3.74976
3.13752
3.17845
4.13109
3.97094
3.62273
2.89188
3.43074
2.59952
2.43296
3.59971
3.41697
3.41068
3.17042
3.6559
2.37615
3.04791
2.49684
3.45327
3.72358
3.19023
3.51006
3.85402
4.06021
3.47236
4.03177
3.8203
4.17894
3.97112
4.28492
4.24413
4.13313
3.45429
4.04952
3.22043
3.26801
3.95243
3.72737
3.58971
3.42156
4.07766
4.11359
4.1769
4.11076
3.97739
4.09269
3.99563
4.02954
4.03595
4.02029
3.95638
3.9771
3.97346
3.92898
4.03014
4.03749
3.96748
3.93538
3.94504
3.91724
6.89109
6.59183
5.31495
5.7044
7.3183
6.24866
5.53339
6.56006
4.93737
5.05626
5.02317
6.70599
7.84236
7.4311
7.49932
7.5526
7.66694
7.45799
8.02021
7.87415
7.33319
7.36742
7.05158
7.10741
7.03864
7.95729
7.65471
2.27704
2.35056
2.29723
2.27599
3.03783
3.01988
2.95903
2.81472
2.83268
2.46368
2.66639
2.20295
2.22679
2.58501
2.58027
2.43926
2.86279
2.86053
3.29626
3.0784
2.91349
3.85906
3.86263
4.2318
4.08328
3.5512
3.93401
3.66953
3.98274
6.9236
6.1306
6.26858
5.89208
6.45738
7.9333
5.98858
6.07113
5.90408
6.11958
6.60032
8.08199
6.13553
14.8949
15.983
15.3636
12.9247
14.0011
13.0307
12.1253
9.4138
9.90357
15.968
15.1498
16.2055
16.4274
9.84019
9.82497
13.6576
11.6883
10.2703
11.0273
13.7687
4.7595
4.73829
4.63253
4.71609
4.53752
4.46923
4.94769
4.59071
4.65632
4.58274
4.93854
4.65329
4.66902
4.9146
2.78898
2.15055
2.18805
2.18212
3.77831
5.58146
3.07047
2.83684
3.54677
4.00698
2.21806
2.45618
3.27962
2.85286
2.09933
3.22362
2.65144
2.25681
6.45012
7.08341
5.18485
5.19324
6.45167
6.96619
6.28903
5.22079
5.28581
5.60868
5.39381
5.24085
6.48877
6.96862
7.39531
6.25075
6.76452
5.87438
5.80748
5.38717
29.7921
6.86039
13.9277
6.99795
9.46018
2.72695
2.67089
2.93835
3.01953
2.45756
2.58919
2.50199
2.44638
3.24742
3.00076
2.90358
2.81066
2.4374
2.66203
12.2057
12.3563
12.9072
18.4107
15.806
18.3249
6.08503
7.5626
11.6948
15.5118
6.35126
4.76556
4.8732
4.95622
4.88757
4.6261
4.64162
4.76011
4.73852
4.86692
5.01318
4.87779
6.95713
7.07972
8.29883
7.8971
6.60361
6.17562
6.22228
7.69983
6.80963
6.41179
6.49861
5.92153
7.67765
8.2739
7.53636
5.60321
5.72115
5.50625
5.44309
5.6278
5.50862
5.22595
5.32922
5.282
5.28551
5.53288
5.79194
5.39824
5.50272
5.43887
5.38984
5.69558
5.83189
5.40795
5.62848
5.51396
7.85231
7.47469
7.5016
7.08588
6.84556
6.39884
7.69357
8.16807
7.21091
6.51807
5.9462
6.85522
5.94239
7.43229
5.90971
7.07787
6.45588
8.27175
8.21529
7.92956
7.80851
8.50842
8.90633
8.37215
9.43663
9.81386
8.79019
8.24013
9.13396
8.55775
7.49093
8.16335
9.0887
7.98937
8.27664
7.70422
8.34811
5.8326
5.9736
5.7753
5.85476
5.59745
5.79337
5.95409
5.69565
5.74441
5.90595
5.88843
5.91684
6.12939
6.13763
2.66055
3.02745
2.853
3.00553
2.92168
2.79506
3.45855
2.78452
2.87171
3.00928
3.80261
3.00434
2.83934
3.94795
3.26075
3.82015
4.32587
2.87651
3.18065
3.55547
5.56383
3.77084
4.70755
3.29077
4.83537
2.08776
2.1295
2.29911
2.04958
2.18323
2.19851
2.10686
2.15112
2.2335
2.12237
2.03542
1.99765
2.05943
1.99613
2.07247
4.0635
4.13335
3.59022
3.33056
10.0435
11.195
3.30072
11.767
3.72978
3.96724
3.73113
6.56451
5.76366
10.6346
12.2806
8.30459
9.66158
8.57449
5.72694
5.87022
5.84347
5.71332
5.96108
6.47179
6.16011
5.99081
5.86585
5.68315
5.68306
6.33765
5.80091
6.402
5.93793
6.47828
5.7098
5.67793
6.47962
5.90598
6.30395
4.58802
4.50032
4.50179
4.48191
4.52256
4.51641
4.58768
4.60815
4.54122
4.55292
4.60918
4.6975
4.80872
4.72438
4.68339
3.62654
3.69395
3.65155
3.63522
3.68309
3.75605
3.7129
3.60884
3.95996
3.77536
6.74352
6.898
7.16562
6.96546
6.54759
7.0771
7.53096
7.3237
7.31866
6.85575
6.74943
6.99742
6.15144
6.37542
6.85119
5.46865
5.41356
5.9833
5.798
5.68655
5.61535
5.05058
6.43507
5.9539
7.24011
6.90555
6.37406
5.15582
5.37212
6.53872
6.5771
5.77326
3.00042
3.11573
3.095
3.09849
2.61279
2.90966
2.58328
2.58485
2.55378
3.24601
3.35208
3.1263
2.59735
2.81027
3.35987
44.3278
15.016
20.9562
10.039
17.8924
35.7637
31.7616
26.3129
12.9741
11.5637
11.7828
23.6688
15.8555
15.058
27.3268
4.93708
4.79584
4.92661
4.87583
4.71928
4.84083
5.36281
4.94925
5.71145
5.09291
5.47315
5.01017
4.859
5.12164
5.02715
4.82784
4.77981
4.87814
5.04058
4.67239
4.63772
4.97192
4.87815
4.9757
4.83635
4.81267
4.84671
4.69142
4.7488
17.3781
12.6919
19.3461
33.1291
23.9074
18.9873
16.9448
33.1291
19.2458
3.0832
2.86279
3.15897
3.12187
2.82854
2.85134
3.17681
4.03736
4.07655
4.90307
4.80403
3.60288
3.73643
4.56794
3.25639
4.15462
4.20202
3.30113
59.7772
66.9509
81.1583
38.2148
64.7925
75.0827
105.35
101.138
45.083
89.1219
60.3072
61.1962
85.1141
88.1012
122.341
124.519
212.202
76.5919
92.2332
122.495
204.111
62.2227
65.9202
62.0294
81.1257
63.6792
121.402
46.9798
46.1195
82.0666
62.5247
8.86761
5.72919
7.39209
17.0876
8.46802
26.0434
4.97772
8.49056
14.8172
8.14404
9.50803
9.27972
10.5372
9.53764
10.091
8.89164
8.39159
9.69412
10.6182
9.74677
10.5867
10.4502
9.85178
10.2957
9.90892
14.9588
15.0182
15.2523
13.9352
16.9688
17.1584
14.403
13.2127
17.1565
14.7824
15.3958
11.6035
12.652
10.785
13.7034
9.11327
14.9629
13.1
8.56372
24.9358
23.4766
32.8717
28.7041
28.0428
26.8666
28.3093
34.7051
37.1004
35.9944
36.8186
41.8266
45.2205
8.35764
7.46916
12.8577
15.4964
7.94039
8.3899
14.7135
11.4521
7.49431
7.28068
11.8823
8.51143
8.0778
8.25407
9.66589
14.115
16.1709
19.6237
15.4237
19.0709
16.3781
10.4463
22.8555
13.1774
22.5287
23.2162
22.4177
28.2479
24.9045
9.44706
8.58846
20.6695
26.537
28.2313
20.7151
3.34956
3.31204
3.22797
3.27365
3.3038
3.33682
3.3672
3.31738
3.18762
3.18992
3.3194
3.3663
3.28144
3.36729
3.34208
3.6866
3.55708
3.58051
3.24904
3.44873
3.60409
3.30383
7.35024
6.86863
7.18967
6.73601
7.1283
7.33435
7.81254
7.68448
7.34451
7.03179
7.12023
7.6703
7.11069
7.81235
7.50137
7.40793
7.16661
3.57405
3.76389
4.06083
4.05669
3.89536
3.70248
3.54638
3.58766
4.14567
4.36427
4.86386
4.77379
5.375
3.25843
3.79663
4.02356
3.94602
4.27175
3.89764
14.9347
12.8648
8.20083
8.49581
7.6808
7.44863
8.4168
10.0973
15.9573
16.2842
15.1266
15.5145