/*--------------------------------*- C++ -*----------------------------------*\
  =========                 |
  \\      /  F ield         | OpenFOAM: The Open Source CFD Toolbox
   \\    /   O peration     | Website:  https://openfoam.org
    \\  /    A nd           | Version:  10
     \\/     M anipulation  |
\*---------------------------------------------------------------------------*/
FoamFile
{
    format      ascii;
    class       volScalarField;
    location    "15";
    object      p;
}
// * * * * * * * * * * * * * * * * * * * * * * * * * * * * * * * * * * * * * //

dimensions      [0 2 -2 0 0 0 0];

internalField   nonuniform List<scalar> 
75457
(
-35.7419
-32.3241
-28.4381
-25.7855
-21.0936
-22.6551
-31.6139
-31.4023
-20.3675
-14.8336
-18.8361
-20.5067
-20.0878
-17.7124
-3.94966
-4.41117
-4.17858
-4.34945
-4.76823
-4.30274
-3.79907
-4.47726
-4.49252
-4.83616
-4.6032
-4.97591
-4.66244
-0.6708
-0.807348
-0.323474
0.0198947
-0.245423
-0.408857
-0.465556
0.139837
-0.830638
-0.699298
-0.97267
-1.06818
-0.217813
-0.431478
-0.170334
-0.62492
-11.8542
-12.0537
-10.792
-10.9249
-11.4742
-5.79284
-6.53094
-6.91825
-6.20634
-6.30629
-6.52751
-6.91562
-6.96274
-6.72079
-7.00193
-6.20484
-6.5308
-6.37688
-6.11701
31.092
31.3597
31.099
31.4317
31.668
31.6922
31.3445
31.3833
31.654
31.4419
31.1719
31.4318
31.4202
31.1011
31.3091
-8.35867
-9.59859
-7.9582
-9.59054
-11.69
-5.62924
-5.99873
-8.02322
-8.8796
-8.78703
-8.6385
-5.77087
-6.88166
-5.69489
-5.72587
-6.72964
-5.9468
-6.91447
-7.06367
-7.09844
-7.44139
-7.04051
-6.8716
-8.04983
-7.27537
31.7576
31.6466
31.9081
31.9244
31.7906
31.6412
31.5603
32.0121
32.014
31.6278
31.6391
22.3741
23.0352
25.4969
25.0713
22.4363
24.0152
24.0477
23.5175
23.8742
25.5631
25.347
25.8902
26.4289
25.1828
24.6215
23.4248
25.8436
24.8408
13.9147
13.8783
13.2997
14.1877
13.7821
15.3071
14.9932
14.8798
14.8714
8.02867
7.57124
8.13905
7.68341
7.11738
7.62642
7.65191
6.70583
-6.96782
-7.00645
-6.40004
-6.6001
-6.98512
-6.64125
-6.35331
-5.86511
-4.32196
-4.3716
-5.9059
-5.63082
-5.1652
-5.86995
-4.74934
16.4887
18.0888
18.3306
17.6682
18.0884
14.3733
15.7604
17.3211
16.3269
17.2893
14.6107
13.296
13.8894
-9.32796
-9.79408
-9.66668
-9.8696
-9.64052
-9.77141
-9.10331
-9.79873
-9.64061
-9.8784
-9.86385
-9.70458
-9.628
-9.74884
-8.5471
-7.17489
-9.65336
-7.07287
-7.38627
-8.99049
12.0501
12.8248
11.4931
12.262
10.4888
11.2919
13.6338
13.3425
12.4516
9.73364
9.71123
-7.58982
-7.43818
-7.85128
-7.81263
-7.75613
-7.68638
-7.52846
-7.40309
-7.01997
-7.83531
-7.58356
-7.37049
-7.72466
-7.34131
6.4183
5.48895
5.87982
4.20603
4.74951
5.48895
5.39248
6.62633
6.19601
5.28353
4.67771
4.0411
6.2538
4.70541
-7.03184
-7.09978
-6.85671
-6.82317
-7.11422
-7.05062
-7.11855
-7.08721
-7.2454
-6.82174
-7.0651
-6.55745
-7.16894
-7.23289
-6.99154
-6.95884
-7.10935
-10.0617
-9.74872
-9.78353
-9.65644
-10.906
-9.33711
-9.33361
-8.73565
-9.60922
-10.0647
-9.16273
-9.73635
-12.3176
-12.1516
-12.2333
-12.3811
-11.7176
-12.1573
-12.5294
-12.185
-11.7754
-12.4989
-12.1123
-11.9467
-11.9907
-4.69386
-4.4205
-4.7418
-4.13635
-4.15809
-4.03511
-3.8238
-3.77784
-3.73917
-4.274
-4.571
-4.45611
-3.66734
-4.12039
-4.03307
-0.413713
-0.396802
-0.223055
-0.387496
-0.202256
-0.361799
-0.589072
-0.674549
-0.163835
-0.105172
0.134229
-0.0375723
-0.212589
0.0905324
0.373908
0.1772
-0.0641729
0.147996
0.0790199
0.0476741
-0.0981131
-0.149446
-4.343
-4.72487
-3.58206
-3.71475
-4.07539
-4.24129
-4.72244
-4.60891
-4.87207
-5.11637
-4.83015
-8.17015
-8.33376
-8.48949
-8.51467
-8.45372
-8.13233
-8.19602
-8.60047
-8.85714
-8.519
-8.78516
-7.85942
-8.15403
-8.3679
-8.46872
-8.26951
-8.41461
-16.2333
-15.0077
-14.7199
-16.3655
-18.9142
-18.5817
-18.2546
-17.9521
-17.677
-17.2572
-18.6095
-4.05672
-4.39509
-5.1628
-4.95538
-4.58216
-4.88506
-4.40323
-5.27772
-5.12446
-4.71966
-4.46128
-0.218122
-0.127085
-0.357242
-0.450006
-0.140359
-0.124869
-0.409906
-0.155277
-0.463876
-0.570137
-0.552495
-0.228112
-0.45446
-0.922248
-0.81701
-5.4507
-4.40655
-6.52398
-5.52427
-5.39042
-7.55082
-7.91923
-7.58092
-7.89506
-7.92336
-7.57566
-8.37212
49.8608
54.6353
43.2935
45.9201
48.719
50.7684
50.4264
53.2526
45.8871
50.284
48.5245
49.5296
45.6479
50.0938
44.3736
45.8584
47.7639
42.8203
34.6787
34.2214
34.984
35.7152
36.61
37.5785
34.8955
35.5227
37.9926
41.4397
38.1876
38.3932
40.0972
26.0437
23.2767
20.7237
22.3547
26.9237
23.6359
22.1927
23.5982
23.264
21.3712
28.6064
28.5869
21.735
23.2714
20.7509
26.9157
29.0283
29.0894
25.107
25.081
25.749
27.0453
-8.95448
-9.30419
-9.55973
-9.53191
-9.64106
-9.03921
-9.1074
-9.25599
-9.37928
-9.0403
-9.49687
-9.04828
-9.21676
-9.13545
-9.31832
-9.28626
-26.3241
-29.5738
-15.3992
-23.8925
-13.8775
-20.9368
-18.9738
-15.9453
-13.9013
-19.035
-33.8237
-28.9958
-18.377
-26.3416
-14.1713
-16.0689
2.25552
2.10044
2.26537
3.10514
3.47276
4.0816
1.90602
1.58
3.23597
3.20726
4.08847
3.73781
3.46769
3.39401
3.22944
2.57633
1.8431
2.64924
33.8152
37.8545
36.4192
33.0213
34.3419
37.0956
40.6278
39.7024
34.6033
40.5791
42.2732
40.5374
36.6598
33.4345
34.2267
35.2565
26.943
26.2982
26.8002
26.5721
25.7312
27.5089
28.0849
27.4685
26.8378
27.783
27.224
26.406
27.2593
25.684
26.3662
27.8909
28.3688
12.4629
12.3106
12.0323
12.3983
12.3929
12.4473
12.5269
12.6011
12.6344
12.4837
12.1296
12.2037
12.705
12.3569
12.4704
11.7615
11.7624
-4.32111
-5.37114
-7.0444
-6.12375
-5.00208
-5.17077
-4.4545
-4.45304
-5.60182
-5.27191
-6.86666
-7.10733
-5.56841
-4.20114
-6.57019
-5.55753
-5.48307
-6.38453
-3.78782
-3.89468
-3.7609
-3.72214
-3.07663
-3.45227
-3.53969
-3.57625
-3.07823
-3.30176
-3.42135
-3.02578
-2.96228
-3.23238
-6.21197
-5.73037
-6.75526
-7.59965
-7.61933
-7.03412
-6.64476
-6.43853
-6.32671
-7.48183
-7.47415
-7.26779
-6.71529
-6.20284
-6.51103
-7.25425
-7.47609
-7.62618
21.4331
17.2017
18.0045
24.7508
21.0757
15.2251
18.1406
18.2931
14.7884
23.1256
18.2961
15.4238
-9.08816
-8.90007
-8.57739
-8.62037
-8.96928
-8.60144
-7.55689
-7.93661
-8.65431
-8.76968
-8.6826
-7.86839
-7.92352
-8.40235
-8.57109
-8.33201
-5.15656
-5.66085
-4.70808
-5.0263
-6.0431
-6.00792
-5.74904
-4.58638
-4.57317
-4.6384
-4.57491
-5.69708
-5.9694
-4.70798
-4.32874
-5.43687
4.83694
4.07941
3.41628
6.62429
7.50762
5.09031
5.79629
2.58111
4.14502
4.83826
6.41797
5.34039
6.39161
7.20171
6.93218
3.87
3.97658
5.2604
3.36484
-2.44411
-1.45552
-2.33991
-3.99026
-3.06128
-1.92426
-3.80734
-3.35182
-2.3904
-2.82155
-2.44926
-3.81765
-2.56993
-2.24528
-0.909721
-0.719869
-0.96445
-1.40809
-1.17235
-1.15417
-1.14484
-1.05208
-1.43042
-0.952146
-1.44168
-0.966207
-1.80537
-0.807258
-0.724991
-1.00426
-0.788289
-1.13003
-3.62701
-4.23964
-3.30049
-1.91915
-2.39164
-6.05513
-3.55028
-3.21963
-3.23309
-4.31805
-5.75122
-7.72658
-8.02829
-8.23566
-8.05744
-9.19862
-9.85607
-9.21422
-10.1834
-7.08
-6.88647
-9.57334
-10.922
-10.5431
-9.66167
-9.39186
-10.7718
-9.30586
-9.08945
-9.81869
-9.90286
-8.46299
-9.7842
-9.81516
-9.51223
-9.69106
-9.49059
-9.68451
-9.75144
-9.44977
-9.2763
-9.46959
-9.6752
-9.45545
-9.50221
-9.44828
-9.54686
-9.46353
-9.4792
-7.5525
-7.95793
-8.97131
-8.95817
-7.95516
-8.40918
-8.90324
-9.02217
-8.22443
-8.7411
-8.12532
-3.78989
-4.32022
-2.70307
-2.07971
-2.41766
-2.12317
-2.28712
-1.13276
-2.28436
-2.487
-2.27914
-2.3403
-1.57526
-2.7462
-2.54293
-2.50191
-2.82902
-2.73161
-2.12851
-2.65972
-2.41831
-2.85459
-2.828
-2.35005
-2.37738
-2.54761
-2.13285
-2.5074
-2.32856
-2.0999
-2.37535
-2.06205
-2.32298
-2.45993
-2.12993
-5.89046
-6.10562
-5.99808
-5.93483
-5.54309
-5.09207
-5.99183
-4.80201
-5.6169
-4.42222
-5.12381
-5.51304
-5.77987
-5.2823
-5.14153
-6.55756
-5.52739
-4.92294
-4.68051
-4.64573
-7.6768
-7.90864
-8.12365
-8.0443
-7.09546
-7.32696
-8.07841
-8.08765
-7.86853
-6.69243
-7.02731
-6.96121
-6.67295
-7.36594
-7.21126
-7.59118
-6.49956
-6.80531
-7.4544
-7.55624
-6.68566
-6.92048
-6.39457
-7.47684
-6.6886
-7.39537
-6.90473
-8.08472
-6.27609
-6.10011
-6.30375
-6.90581
-7.44151
-7.08214
-7.6523
-6.72881
-6.49511
-6.75924
-6.67782
-7.40306
-6.97452
-8.17674
-7.58166
-8.39989
-9.18503
-8.74502
-8.67734
-8.13665
-8.26395
-9.12871
-8.99195
-9.55007
-8.60284
22.3452
22.8898
23.8419
22.8158
23.6225
22.375
23.4107
22.2428
22.813
23.8149
-9.39272
-9.17999
-8.85707
-8.91504
-9.49382
-9.46194
-8.94925
-9.12178
-9.47534
-8.83174
-9.31108
-9.102
-9.1031
-9.50971
-9.12094
-9.41978
-9.47981
-9.38332
-8.82522
-9.70485
-9.44779
-9.1641
-9.85747
-8.67388
-9.48037
-8.62191
-8.43887
-9.44577
-9.6943
-8.55129
-9.54074
-9.58826
-9.128
-8.79632
-9.79847
-9.11442
-9.10781
11.9044
12.3088
13.0122
12.4308
12.0974
13.236
9.79487
11.3758
11.6037
11.2641
10.5545
12.6653
12.1405
12.6787
11.7906
11.3541
-13.0963
-14.1794
-13.2594
-12.628
-12.835
-10.8838
-11.4053
-12.1167
-12.9373
-13.616
-9.73973
-11.2189
-12.2054
-11.3204
-12.35
-10.4371
-10.1489
-10.1674
-11.2183
-11.3244
-12.0152
-10.3884
-9.89305
-9.67055
-10.8114
12.478
11.4686
11.1097
11.1829
11.2292
9.75279
9.43156
8.84811
8.89866
9.45895
9.58535
8.66936
10.4175
9.52572
11.2233
11.3293
9.38848
10.4967
10.1091
-9.13707
-9.18128
-9.67963
-9.18741
-10.5479
-9.38643
-8.93215
-9.59493
-9.53634
-9.1736
-9.03631
-9.77475
-9.91005
-10.4013
-9.90117
-9.22854
-9.10434
-10.0327
-9.75606
-6.46029
-7.61407
-7.18108
-6.82698
-6.60283
-7.22809
-6.36443
-5.93846
-7.25644
-7.02228
-7.26116
-6.74676
-7.60814
-7.29668
-7.6512
-7.56649
21.601
22.162
21.4772
21.2777
22.5147
23.4001
23.1899
22.2612
22.2776
23.1142
23.2849
22.362
23.2319
23.7715
24.4477
23.8878
-11.2818
-13.216
-9.48581
-9.37981
-14.4059
-17.2976
-6.35288
-7.44742
-10.1181
-12.6828
-9.53385
-10.2017
-11.7925
-17.0626
-15.298
-7.95051
-12.9263
-9.90815
-13.3943
-15.847
58.3033
52.3492
48.0179
47.6822
56.7813
58.0771
51.5849
56.3922
50.5758
52.5723
50.1524
50.5973
47.4162
47.2813
52.9986
20.8228
19.5108
24.1492
25.8293
23.6671
20.5973
25.9612
22.5142
24.977
28.2395
27.1768
28.4084
30.1315
27.9406
-14.0692
-14.809
-14.3563
-15.1065
-13.2196
-13.4881
-11.8754
-10.7482
-13.0658
-13.0089
-11.2075
-10.7447
-13.4995
-11.8011
-11.4733
-12.0975
-5.24264
-4.9561
-5.02644
-5.1722
-4.94897
-5.25858
-4.90403
-5.24415
-5.41956
-4.77219
-4.82023
-4.77062
-5.34634
-5.16805
-4.84713
-5.0371
-4.97834
-5.31618
-5.11961
-10.0656
-10.1057
-9.71167
-10.4132
-10.5547
-10.4616
-9.79525
-10.4917
-10.4025
-8.99277
-9.58474
-9.3964
-9.91002
-9.61079
-10.7208
-10.4219
-8.98132
-9.39354
-9.14334
-9.22139
-8.89061
-8.96006
-9.41427
-8.88245
-9.01544
30.5682
29.7359
29.7954
30.2468
30.4217
30.0241
29.806
29.8431
30.5524
30.3465
30.4075
30.1549
30.2448
30.021
30.3411
30.4035
30.4229
30.2136
29.8626
30.4946
-6.41883
-7.23128
-6.35778
-6.88377
-6.36819
-6.04354
-6.19794
-6.97437
-5.98005
-6.29509
-6.50342
-6.68554
-4.32272
-4.40535
-3.99967
-3.85456
-3.66574
-4.38284
-4.37661
-4.51395
-4.27587
-3.83924
-3.82188
-4.13058
-4.17497
-3.80842
-3.95488
-3.9045
-4.07716
-3.93554
-3.19683
-3.01877
-3.3025
-3.01677
-3.1618
-3.54535
-3.60628
-3.76238
-3.81676
-3.0793
-3.53007
-3.19171
-3.85528
-3.71605
-3.35719
-3.18194
-3.87534
-3.55128
-3.13058
-2.33391
-2.42626
-2.59137
-1.87967
-2.21578
-1.943
-1.94303
-2.69369
-2.2848
-2.7696
-2.73226
-1.92452
-1.95534
-2.10484
-2.795
-2.74849
-6.37105
-6.36216
-6.81658
-6.86558
-6.81859
-6.26911
-6.41876
-7.36471
-7.03904
-9.38952
-9.13715
-9.23393
-9.37048
-9.46487
-9.49372
-9.34023
-9.62211
-9.3159
-9.15449
-9.47596
-9.27863
-4.07423
-3.91266
-4.0738
-4.07995
-4.00898
-4.21566
-4.15273
-4.34234
-4.35124
-4.14249
-4.61653
-4.54687
-4.49195
-4.59813
-4.42757
-4.58908
30.9408
31.1426
30.8796
30.6149
30.2616
30.3272
29.859
29.8026
30.0799
30.6183
-8.06861
-7.79866
-8.0393
-7.80949
-8.15398
-8.04054
-8.30433
-8.28398
-8.49059
-8.49325
-8.21714
-8.01948
-8.23562
-8.67486
-8.58557
-8.35919
-8.26598
-8.20434
-5.0568
-5.35343
-4.97529
-5.04842
-4.99106
-4.98529
-5.20911
-5.00484
-5.14897
-5.56614
-5.32774
-5.37909
-5.1498
-5.32851
-4.91641
-5.01322
-5.21409
-5.00808
9.04077
8.42512
7.8457
8.82012
7.00556
6.44103
9.44609
8.91845
7.6079
9.12837
8.1509
7.23651
8.01065
8.04504
30.8578
30.7564
30.6341
30.4614
30.9105
30.5016
30.3209
30.3554
30.6633
30.4792
30.6536
30.7782
30.3487
30.3159
30.2051
30.2474
30.627
30.4223
30.5692
30.3359
43.6298
42.2788
35.4223
38.5131
28.0567
32.3964
17.8876
33.6256
33.5882
30.9548
36.7148
26.8307
38.4836
43.652
39.4468
46.975
28.5564
39.8199
35.3124
-8.83903
-9.44696
-5.73407
-4.43014
-9.89382
-12.1877
-12.0599
-14.4038
-5.42343
-5.46892
-16.4453
-13.0785
-7.55962
-11.5166
-13.2257
-8.34793
-8.65797
-13.8192
-10.8217
-10.8717
-0.655848
-1.32123
-1.1626
-1.24719
-1.59529
-0.827043
-2.14809
-1.3035
-1.50615
-1.52395
-1.36206
-1.32871
-2.00642
-0.999569
-2.12497
-2.17063
-1.94701
-1.93657
-1.05206
-18.1745
-18.4672
-19.1633
-18.3865
-18.5048
-18.8483
-17.2461
-18.6267
-19.1938
-16.7622
-17.2035
-16.9989
-17.5928
-18.3726
-17.7899
-18.0971
32.5874
32.5382
32.4049
32.4814
32.7534
32.7705
32.6477
32.6761
32.4866
32.3514
32.8693
32.6455
32.8101
32.8053
32.4308
32.3527
32.5198
32.6899
32.8209
32.4174
0.231498
0.082035
0.645572
1.06398
-1.8706
-1.9542
-2.3842
-3.24235
-1.14796
0.244965
0.620382
-1.87222
-2.21632
-2.74371
-3.47526
-3.35956
-1.04036
-2.85842
-2.61096
-1.55069
32.7456
32.6346
32.7177
32.7605
32.7498
32.7674
32.6902
32.8216
32.8851
32.8922
32.9591
32.6686
32.8368
32.8048
32.9154
32.8978
32.7838
-5.72151
-5.65257
-5.78582
-6.06032
-5.96874
-5.66478
-5.45042
-5.83842
-5.94089
-6.20323
-5.50822
-5.07689
30.8302
30.6461
31.1939
31.1966
30.9538
30.8984
30.5606
30.7732
30.9952
31.159
31.1992
30.8298
30.6676
30.7845
30.5841
30.7838
30.5819
30.8459
30.9125
30.5725
30.8151
24.4188
23.9818
24.077
24.4928
24.5313
23.6958
24.0815
25.7197
25.8895
25.6775
24.9887
24.6293
24.265
24.2008
24.2302
24.9154
24.8078
24.8091
9.65023
9.91114
9.98832
9.57359
9.83772
10.5398
10.1763
10.2147
9.96753
11.1225
10.9472
11.1953
11.0285
10.0999
9.82833
50.8302
45.7607
39.9353
41.3559
47.6912
45.7834
57.2339
42.616
49.4712
44.3706
56.8023
56.603
52.3259
45.5947
-0.663759
-0.370463
-0.869987
-1.42683
-1.27606
-1.56782
-0.736853
-0.820276
-1.0933
-0.795922
-1.61472
-1.25013
-0.931487
-0.381308
-0.603504
-1.09035
26.4567
24.4054
26.0406
24.2456
23.9116
24.2997
24.6215
24.6753
25.5271
25.93
28.3811
27.8727
26.8945
29.2024
29.7877
27.2101
28.2409
32.018
31.9786
31.577
31.6759
31.7794
31.8314
32.0511
32.0883
31.5434
31.6603
31.9987
32.0265
31.9822
31.8609
31.8169
31.9831
31.7891
-11.8018
-9.50671
-9.48191
-12.8477
-8.74809
-13.803
-19.3805
-8.77992
-11.5461
-12.1338
-11.2998
-11.4056
-12.5761
-9.35379
-16.2092
-16.0314
-13.1217
-14.1902
19.1683
18.8316
20.4281
20.1027
19.4023
18.1066
18.5082
20.0478
20.5285
20.1358
19.8882
20.1932
18.5223
18.2752
17.6438
19.4296
18.3156
18.9298
17.8993
19.4003
18.7047
18.4734
-4.93286
-5.20884
-5.11715
-5.07451
-4.13158
-4.24141
-3.06194
-3.28958
-4.33591
-5.28125
-4.96709
-4.50609
-3.32543
-3.48657
-3.39782
-3.45969
-4.55301
-5.10637
-4.40255
-4.4921
-4.93936
-4.76624
-4.54567
-4.86353
-5.14544
-4.96614
-5.05135
-4.25932
-4.30459
-4.19682
-4.39162
-4.34776
-5.09791
-5.07411
-5.00269
-4.69202
-4.30619
-4.77623
-4.79907
-4.66685
-4.71934
-4.87663
-5.10234
-5.14816
-4.65687
-5.01603
-4.65208
-4.79983
-4.54421
-5.01248
-4.23394
-4.55012
-4.35194
-5.08247
-4.70849
-4.36036
-5.0714
-6.81001
-7.30266
-7.19321
-8.7671
-5.46363
-4.07238
-7.98631
-7.72462
-2.48674
-3.37823
-0.674586
-4.13694
-1.51196
-4.52419
-3.92892
-6.18768
-5.91726
-4.20204
-3.53337
-0.0644912
-2.42489
-0.465469
7.61621
6.02257
5.36673
5.84174
6.4445
8.01493
7.89508
6.86088
6.14557
5.31061
5.7092
5.85344
5.49834
6.527
6.38305
7.46077
6.25328
5.51856
6.17053
-7.37269
-6.94427
-7.15484
-7.19057
-7.31405
-7.36044
-7.55124
-7.84461
-7.37216
-7.93154
-7.4451
-7.28902
-7.31968
-7.25626
-7.31207
-7.27731
-7.32015
-3.63927
-3.8405
-5.29739
-4.77095
-4.58644
-4.84298
-5.07978
-4.75629
-4.14832
-4.97522
-4.33716
-4.98324
-4.66347
-4.70513
-4.18331
-4.97844
-4.91919
-5.51286
-4.28658
-4.93496
-3.90251
-5.16711
-4.87271
-5.21742
-5.28485
-3.70709
-4.65978
-4.966
-4.77543
-4.16431
-5.16562
-0.151856
-0.444935
-0.163933
-0.00748812
-0.122018
-0.195563
-0.296295
-0.301674
0.0402188
-0.140434
-0.364248
-0.296718
-0.433406
-0.529497
-0.114607
-0.254839
-0.600006
-0.49386
-0.471485
-0.495566
-0.216346
-0.0392918
-0.648703
-0.0481021
-0.275036
-0.211665
-0.470235
-0.618037
-0.275652
-0.438507
-0.22972
-0.093674
-0.0653932
-0.280543
-0.538507
-0.279082
-0.24249
-0.579258
-0.0487043
-0.29622
-12.332
-13.103
-16.2443
-16.9533
-16.8396
-17.6549
-13.4667
-14.3116
-14.7734
-11.4006
-12.845
-13.7778
-16.2235
-15.4789
-15.642
-14.3144
-13.9797
0.836889
0.847111
0.450262
1.73202
1.08645
0.217502
-0.0505998
1.79982
1.50942
0.552863
-11.0365
-11.0588
-11.7267
-12.0224
-11.005
-10.9802
-11.3361
-11.9732
-11.925
-11.3925
-11.3726
-11.1412
-11.1208
-10.6013
-10.5856
-11.0753
-10.9209
-10.9332
-8.20033
-8.17842
-8.33045
-7.99625
-8.39983
-8.02201
-8.19798
-7.96461
-7.6768
-7.72486
-8.47241
-8.53762
-8.23593
-0.632504
-0.363497
-0.745322
-0.436273
-0.903709
-1.03389
-0.731942
-0.224227
-0.146188
-0.639688
-0.88843
-0.673598
-0.211268
-0.0990489
-10.229
-10.1165
-10.6741
-10.3471
-10.1198
-10.1048
-10.5757
-10.437
-10.3622
-10.3837
-10.3772
-10.7543
-10.4194
-10.0534
-11.0465
-19.8402
-18.9651
-18.6391
-18.7502
-17.7641
-17.501
-20.6752
-20.0862
-20.0048
-20.3639
-20.9618
-20.9647
-18.3316
-18.116
-18.8662
-18.8643
-19.0133
-20.3395
31.636
31.6319
31.8878
31.2343
31.3488
31.3098
31.4183
31.2388
31.5594
31.5369
-7.52437
-7.58326
-7.58281
-7.81085
-7.48334
-7.78376
-7.4481
-7.53417
-7.34045
-7.42175
-7.4637
-7.74106
-7.81039
-7.58068
-7.8272
-7.44124
-7.57569
-7.61036
-7.41874
-7.58664
-7.65308
-7.59095
-4.09717
-4.18884
-4.31162
-4.45609
-3.79503
-3.96775
-4.24867
-4.12292
-4.05053
-3.92674
-3.03097
-3.38272
-4.01329
-3.39724
-3.37391
-3.17266
-3.49474
-3.21225
33.2955
34.2647
35.5306
34.2254
32.7996
35.2803
33.4595
34.4055
30.7163
32.5812
34.1527
31.3367
31.6652
30.4212
29.1441
32.2504
30.0566
28.9254
29.9997
33.7104
31.5583
30.5948
28.0145
33.3151
34.0863
35.4803
34.9304
39.3927
38.5938
35.7785
38.3969
31.5865
30.8688
39.2482
40.2779
36.8307
39.5549
32.6185
32.7331
32.7898
32.6015
32.7072
32.6009
32.7763
32.7273
32.5757
32.7041
32.5222
32.5591
32.7783
32.7172
32.72
32.7769
32.1622
28.0099
27.5896
29.9412
31.0446
32.883
30.8278
30.9139
27.2345
26.5594
31.2596
29.0917
30.6635
27.9066
30.0004
27.7441
27.4889
28.7901
29.3657
28.232
28.9123
30.0423
29.8821
29.157
28.4208
30.0547
30.4617
29.9621
24.6954
24.2404
26.4843
27.8508
15.9746
14.965
25.064
24.9037
15.7111
17.9306
20.4786
20.3934
22.11
19.5923
17.1437
15.0427
30.5044
29.6633
30.0232
30.5371
29.7388
31.06
30.6567
29.8594
29.8768
32.7213
32.2896
31.9705
31.4199
30.3001
31.4331
30.8695
31.9278
31.3145
30.6592
32.2096
10.4538
12.3098
6.99988
4.06656
5.25683
8.06597
15.4496
7.10265
10.9516
10.9054
4.6607
9.65236
10.3765
7.30993
10.2801
16.8642
16.9261
15.3982
13.4027
11.7464
20.7389
17.849
17.9073
15.0899
19.0379
19.1318
19.1462
16.4935
15.0592
16.1205
16.2323
17.0087
17.3567
31.9129
31.9587
31.769
31.6634
32.3282
32.3008
31.8723
31.713
32.4793
32.4878
31.9282
32.2133
32.4699
32.4357
32.332
-9.79418
-9.63327
-10.1072
-9.98198
-10.4562
-9.53514
-9.40499
-11.1409
-10.741
34.2567
33.3828
32.3749
32.3178
33.058
32.4343
34.6687
32.1288
35.8902
34.4474
32.2378
34.0944
34.7331
35.0962
35.5592
31.3476
31.6547
33.4335
35.6001
34.2707
31.8402
32.7159
6.55356
7.2582
6.58405
4.68745
5.70157
6.59915
3.4713
4.72568
5.03101
2.93082
4.12594
2.16115
2.96646
1.876
1.43351
2.24649
3.46306
5.02756
1.11093
3.92736
30.7037
29.0185
33.746
29.2114
31.1019
37.5158
34.7765
30.9674
34.6974
30.3134
32.7646
38.624
36.4531
37.1771
40.5911
33.9237
33.1814
31.4605
35.9395
29.929
33.1176
30.8243
34.7298
39.1356
40.0318
38.1487
-8.81042
-9.72927
-9.36582
-8.89861
-8.87131
-9.65178
-9.14211
-8.71028
-10.3203
-8.59395
-8.92476
-9.81415
-9.0109
-8.60593
-8.49032
-8.7717
-8.96797
-9.78832
-8.94897
-8.31652
-8.29194
-8.26319
-8.21116
-8.9304
-8.43302
-8.88718
-4.8248
-4.58188
-5.25015
-5.70066
-4.72353
-4.94684
-4.61773
-3.41802
-5.3012
-2.76071
-5.2829
-4.20008
-3.70456
-4.41133
-5.31525
-5.2669
-4.62689
-4.48019
12.6406
12.1312
8.68344
10.7054
9.34506
7.37526
4.09553
8.82992
9.10059
6.66025
1.75597
5.52935
6.94259
28.0291
28.8156
29.1576
27.7925
29.4548
29.2324
29.6207
28.759
28.8881
27.8759
28.063
29.9503
29.3169
-11.3006
-11.1536
-12.0431
-11.359
-11.435
-12.0099
-13.2381
-12.7442
-14.1362
-12.1802
-12.3374
-11.9099
-13.3547
-11.6292
-10.2659
-10.0108
-10.4779
-10.9677
-11.3221
-11.4616
-11.7117
-10.3887
-10.6228
-10.884
-10.4964
-10.1583
-10.6526
-10.4586
-10.0099
-9.48027
-9.8191
-10.1043
-10.1475
-9.625
-9.3467
-9.33559
-9.11903
-9.49643
-9.77632
-9.91196
-10.1583
-9.75454
-9.40399
-9.72659
-7.93057
-7.59554
-7.63878
-7.51036
-7.54268
-7.45199
-7.47666
-7.79956
-7.54491
-7.46303
-7.62585
-7.59049
-7.592
-8.11326
-3.78876
-5.53824
-5.69724
-4.18551
-5.32227
-5.53845
-6.06676
-3.54311
-3.60541
-4.40301
-4.26752
25.5228
27.1223
26.2085
27.3295
26.5819
27.4866
26.5937
25.8362
26.9441
26.0589
27.4565
25.233
26.7741
35.5299
38.3731
40.7011
49.0173
46.8159
35.3065
52.4076
51.6
38.7171
44.378
36.8933
39.1023
47.3059
51.2098
54.0189
42.3974
44.2412
40.9139
50.6378
48.6079
46.8122
43.8193
36.2461
36.2641
36.2062
34.9244
34.6534
33.3836
33.7965
34.292
33.577
32.5775
32.671
22.4908
21.8247
21.5217
21.1163
23.6161
23.1043
21.3794
22.8124
21.9843
21.0598
20.2746
20.5576
22.2938
23.7018
23.8898
21.0729
20.5234
22.8485
19.9583
34.1053
34.3952
34.2749
34.269
35.0131
34.8451
34.6284
34.4541
34.4512
34.8549
35.6145
35.3155
35.7511
-6.57869
-2.46229
-0.0205597
-3.86919
-1.8853
1.91674
1.73021
2.33419
3.15693
-1.30801
1.01728
-6.63658
-9.90203
-1.36601
1.90751
-4.48983
-2.16291
-10.2837
-5.42104
-11.0385
-4.09924
-8.61732
-8.54802
-8.38447
-8.60284
-8.29612
-8.39519
-8.40347
-8.79188
-8.26607
-7.99557
-8.61689
-8.40347
-8.33091
-8.21071
-8.30642
-8.38864
-8.07264
-8.1129
-10.8832
-12.5682
-9.84985
-10.3362
-9.43517
-11.6894
-10.3589
-10.2881
-10.3186
-10.4111
-11.6578
-13.9609
-11.7226
-11.6433
-10.6875
-8.61194
-9.5757
-9.39793
-9.08248
-10.0927
-12.0778
-9.8864
-7.95582
-8.61321
-8.41441
-10.5366
-9.02576
-3.0691
-3.39653
-3.6543
-3.63981
-3.96657
-11.5797
-13.6768
-12.3049
-13.7472
-18.2217
-11.5771
-15.3911
-18.6841
-18.0725
-22.6653
-24.1573
-20.531
-20.0079
-20.8548
-15.8897
-0.927893
-0.802486
-1.34918
-2.12845
-1.55024
-1.49611
-1.62011
-1.44903
-1.46096
-1.09669
-0.251294
-1.71339
-1.48999
-0.87248
0.351768
-0.708619
-1.46585
-0.948473
18.2975
16.2953
12.2028
19.2691
6.20463
-4.17284
18.6091
8.90703
17.6164
11.6128
12.9556
-16.8826
-9.37245
-27.8373
6.81084
6.2175
3.2792
-6.59943
0.484525
5.63001
-17.2412
-16.8214
-16.8988
-15.3838
-15.7741
-14.6404
-14.505
-14.3171
-15.71
-15.9371
-13.9368
-14.6011
-15.1052
-14.195
-10.2254
-8.54813
-9.23789
-10.9453
-6.70748
-7.40529
-8.80241
-11.1365
-8.65377
-8.20887
-10.9999
-9.75348
-5.95087
-6.63642
-5.91103
-6.47135
-6.54816
-6.80225
-4.60153
-5.66093
-4.84864
-7.42965
-10.7689
-5.94716
-11.8052
-10.0428
-11.8079
-11.1894
-1.59478
-2.16615
-1.95243
-3.99315
-6.26009
-6.79513
-8.65585
-8.73196
-3.32173
-6.37696
-3.83741
-3.96606
-0.511958
-2.14232
-2.40502
-2.0969
1.2942
1.08163
0.0855729
3.04312
3.08036
-0.389253
-2.63093
0.221071
1.32992
2.8541
3.4244
-1.04704
1.33779
1.03841
-0.404451
0.769438
13.944
14.5716
11.6437
12.06
14.6403
12.7892
12.3009
12.9207
13.414
12.9143
11.8627
12.4577
12.5932
11.6492
14.4754
-10.4483
-7.34016
-8.16107
-9.86291
-11.1608
-9.86171
-7.2837
-10.19
-4.78757
-4.44373
-5.17778
-5.10193
-5.17415
-5.57714
-5.52561
-4.78697
-5.49047
-5.65568
-5.03416
-5.81394
-6.75914
-6.35265
-5.15262
-5.23825
-6.4337
-6.28197
-6.43131
-5.5236
-6.17244
-5.06311
-5.5653
-4.6696
-5.98957
-5.58768
-6.12726
-5.38411
-5.1099
-5.72666
-7.88187
-7.63209
-8.16123
-7.91536
-7.713
-8.13306
-8.74349
-10.0227
-9.37659
-8.75584
-8.38494
-9.05507
-8.99956
-9.82169
-9.3411
-8.53795
-8.96988
-9.28437
-1.28965
-1.15453
-1.15527
-1.31745
-1.42291
-1.48414
-1.10027
-1.16432
-1.4857
-1.53207
-1.2516
-1.65593
-2.0204
-2.06206
-1.15598
-1.61676
-1.45183
-1.32784
-2.03169
-1.89871
-1.45672
-1.25677
34.8872
34.5342
35.0104
34.6399
34.0715
34.7363
35.2519
34.1445
34.2724
34.1675
33.5916
33.2934
33.5138
34.5071
34.0129
33.7706
-14.2255
-13.6243
-13.3449
-14.0855
-15.052
-14.2543
-12.4729
-12.4676
-11.5999
-14.1678
-12.7521
-12.4281
-13.8085
-11.8662
-14.843
-13.6322
-14.4347
-15.7666
-4.48665
-4.52024
-3.94012
-3.83962
-4.21719
-4.32084
-4.48395
-3.74657
-3.93087
-3.58854
-4.599
-4.69898
-4.25548
-4.70275
-4.10046
-4.6283
10.6312
11.3519
13.0141
11.4487
10.1487
12.3138
10.7566
12.7501
13.2598
11.4541
11.9793
11.664
11.4258
13.0006
10.9131
9.54966
10.8914
9.3621
9.77846
10.7828
6.93787
5.20206
2.5867
2.3263
0.925686
0.813393
4.74373
-0.290658
10.5197
9.25767
-1.91513
4.05275
8.87973
7.44561
1.09876
4.7178
-11.101
-11.0185
-10.2633
-9.88266
-10.0953
-10.0189
-9.98138
-10.0756
-9.77947
-8.9535
-8.90672
-9.14856
-3.43484
-3.29155
-3.55345
-3.01222
-3.26232
-3.45712
-3.56102
-3.67592
-2.98254
-3.11233
-3.16377
-3.1156
-3.72644
-3.26298
-2.94806
-3.08444
-3.44789
-7.85892
-8.05383
-7.67322
-7.68612
-7.73154
-8.10811
-8.02411
-7.64993
-7.98752
-7.70991
-7.68422
-7.86571
-8.18207
-8.43531
-7.74442
-8.05654
-8.47964
-7.64494
-2.92531
-4.75967
-4.03524
-3.24731
-4.88174
-4.69041
-2.73725
-3.4576
-4.96798
-2.39376
-2.15129
-3.0095
-2.42391
-3.28867
-2.31881
-2.42162
-2.84963
-3.31837
-4.32545
-3.8045
-5.79879
-5.68867
-2.9149
-3.07461
-4.7534
-4.46514
-3.38241
-3.82523
-5.31715
-5.2019
-3.92251
-3.67667
15.8552
15.5217
10.0184
12.8803
14.7742
15.5868
15.433
14.1197
11.2126
14.1067
10.9548
13.5032
13.373
11.9081
35.2304
34.8609
33.7437
33.9478
33.9707
34.3166
34.9792
34.686
33.6561
33.871
33.7474
34.4393
34.2572
34.8055
-1.4159
-1.31665
-1.78957
-1.74603
-1.65062
-1.85508
-1.56381
-1.75091
-1.50602
-1.85046
-2.04654
-1.97328
-1.48929
-1.59181
-1.91777
6.10406
6.52357
9.15705
9.21321
5.97357
7.19054
7.2425
7.7004
8.94528
9.19249
5.18036
5.46142
5.98727
6.57426
7.7754
6.37783
7.2268
-6.84399
-6.79242
-7.12367
-7.55569
-8.35668
-7.7099
-6.61985
-6.81007
-7.81679
-8.49114
-7.34617
-6.62357
-7.27473
-6.84671
-6.70252
-6.05117
-7.0043
-8.06765
-7.37754
-7.02608
-7.83688
-6.46327
-9.33137
-8.29985
-8.55066
-9.09761
-10.7085
-11.4515
-9.31234
-9.10603
-8.99954
-10.6616
-9.96722
-10.3257
-10.0882
-10.7786
-9.81604
-6.43035
-6.48744
-6.41399
-6.50088
-6.23511
-6.27601
-6.1353
-6.2613
-6.12392
-5.84666
-6.01159
-6.05589
-5.99649
-6.30726
-5.9079
-5.98451
-8.26229
-8.25779
-8.3759
-8.41394
-7.76593
-8.39862
-7.61056
-8.36052
-8.22033
-8.08255
-7.87327
-7.69542
-7.00801
-7.39694
-7.15377
-7.79754
-7.9255
-7.86863
14.2066
14.2702
13.2804
12.9387
10.175
8.36524
15.2463
14.4697
7.53256
15.4235
12.9294
11.5923
8.96392
11.6522
13.8719
14.4898
13.1713
9.31833
10.5777
10.1331
8.44446
8.44122
9.71123
10.3996
9.14137
12.0037
11.854
12.0068
10.3622
11.7451
10.89
9.44519
28.8577
28.2334
27.5435
28.5771
29.8005
28.4799
30.0116
30.0431
28.5895
27.8401
26.9287
28.4849
27.3349
31.1602
30.157
-4.87148
-4.62167
-4.31951
-3.77921
-5.21597
-4.59587
-4.07544
-3.92856
-4.56118
-4.14071
-4.58369
-3.50382
-3.78462
-3.24367
-3.52097
-3.96575
-7.4486
-7.27524
-8.21348
-7.36345
-7.32443
-7.46409
-5.81883
-7.35661
-7.36042
-7.79014
-5.74808
-6.13887
-6.69968
-24.9447
-18.469
-16.7711
-10.9592
-24.922
-30.3441
-6.21208
-13.6928
-10.3055
-15.8766
-17.3517
-22.068
-19.4653
28.8379
27.7705
31.7011
29.0086
30.3747
31.9552
29.9257
27.2715
25.103
26.3603
28.9874
30.4967
29.4766
21.1085
23.0176
29.3492
28.8985
22.7482
21.2307
23.816
9.84547
9.71613
9.52531
8.62839
9.6107
8.9854
8.66912
9.33869
9.64505
9.59675
9.14441
9.94174
9.72647
9.29211
-2.53028
-2.09242
-2.21154
-2.47525
-2.06919
-2.58937
-2.71281
-2.72348
-2.44366
-2.57566
-2.75127
-2.87313
-2.71933
-2.0431
-2.13655
-1.92778
-1.85289
-2.36842
-10.7339
-10.7114
-10.5588
-10.8582
-11.8049
-11.8617
-10.6142
-11.1256
-10.7309
-11.1693
-10.3116
-10.9203
-11.4531
-9.78662
-10.5627
-10.1193
-10.9971
-11.3538
-11.2479
-11.0842
-3.69911
-3.21726
-2.98363
-3.39579
-3.4
-9.59621
-9.13833
-10.6667
-9.94288
-9.10866
-10.079
-9.02943
-9.39829
-9.56855
-10.1359
-9.08913
-9.45936
-8.98734
-8.86013
-10.5351
-10.1366
-10.7807
-9.9478
-10.6704
-9.25532
-10.7492
-10.9728
-10.2756
-11.2554
-10.8331
13.3225
13.666
13.6891
13.3815
12.8132
12.6839
13.1118
13.5631
14.1105
14.1018
13.5232
32.3382
32.9802
31.3949
31.2988
32.1595
33.4369
34.0104
32.3724
32.2001
34.6719
33.5219
36.3042
32.3525
31.6671
33.5121
14.4835
13.6996
10.7664
12.1355
11.5811
12.9648
11.2987
9.8578
10.0495
11.347
13.0049
12.0695
13.4505
10.2081
10.7015
12.1424
8.56163
8.59246
10.6254
8.13694
6.86014
25.2053
26.2159
25.627
24.6272
25.1139
24.4611
21.8559
20.8977
19.2587
19.827
20.1695
20.0053
22.9453
22.9749
20.9657
21.5926
23.8686
40.1742
42.3281
42.7521
40.2118
39.3365
41.0501
40.2737
40.9789
42.3143
39.5727
43.2459
40.0491
39.0794
45.7331
44.3237
44.2142
40.8814
43.9198
44.8902
41.3247
0.458842
1.19214
4.89986
3.75695
10.2664
0.997741
2.49385
7.71533
5.77243
8.24177
13.4937
12.8948
7.64327
11.1272
-9.55925
-9.49025
-9.42013
-9.28664
-9.45638
-9.54225
-9.3211
-9.23181
-9.33712
-9.13866
-9.17906
-9.08564
-9.12152
-9.019
-7.29101
-6.97319
-6.89741
-7.23169
-6.7961
-7.24246
-6.84287
-7.32758
-7.06
-7.18566
-7.06216
-0.0829252
-0.00720892
-0.25513
-0.299867
-0.645248
-0.026267
0.0495594
-0.319304
-0.0919016
-0.379363
0.0709598
0.114704
-0.0692805
0.144045
-0.544397
-5.81762
-5.90428
-5.92007
-6.04281
-5.90036
-6.10788
-6.25241
-5.97939
-6.14327
-6.65117
-6.69051
-6.51593
-6.52099
-6.13359
-5.94147
-5.99543
-6.12096
-6.00601
-7.67993
-10.7405
-7.37379
-8.78632
-7.47228
-10.4461
-8.8564
-7.89813
-6.63719
-7.62249
-9.50738
-6.41525
-8.3636
-9.05506
-8.31324
-9.40191
-7.82422
-8.4146
-5.49079
-8.43963
-7.67227
40.8179
44.4687
43.0753
44.8957
40.7543
44.934
45.9932
43.3179
47.2511
48.9835
45.4711
37.423
38.2177
42.7391
38.0458
4.21333
4.57656
2.59457
3.00575
4.88916
3.09284
5.38589
3.72601
3.63338
3.10383
22.76
22.7153
23.3719
23.3801
21.9443
23.191
23.7711
23.646
23.6851
23.6094
21.1197
21.6549
21.4015
21.9382
21.5973
-17.9028
-17.6846
-18.7807
-18.9255
-19.0425
-18.6674
-18.7472