/*--------------------------------*- C++ -*----------------------------------*\
  =========                 |
  \\      /  F ield         | OpenFOAM: The Open Source CFD Toolbox
   \\    /   O peration     | Website:  https://openfoam.org
    \\  /    A nd           | Version:  10
     \\/     M anipulation  |
\*---------------------------------------------------------------------------*/
FoamFile
{
    format      ascii;
    class       surfaceScalarField;
    location    "15";
    object      phi;
}
// * * * * * * * * * * * * * * * * * * * * * * * * * * * * * * * * * * * * * //

dimensions      [0 3 -1 0 0 0 0];

internalField   nonuniform List<scalar> 
146459
(
-1.98628
2.6246
-1.40822
0.769905
0.782534
-1.24295
-1.52587
-3.18785
4.82099
0.991461
-1.14649
-1.25883
-2.06008
-0.91067
1.70843
1.26231
-0.331587
-1.72849
1.73981
-2.32001
-0.662752
6.48784
3.1771
-8.27726
-1.38768
-2.04081
3.4815
5.04715
-0.0102058
-2.38614
0.842633
0.632836
-2.47733
-1.6373
2.89678
1.42735
-25.6382
47.484
-24.4971
2.65123
-27.9625
20.1974
-17.8731
28.1934
10.6608
-16.9164
-21.9379
55.0599
10.2476
-37.1141
-14.0059
-23.2432
9.28659
21.2421
-6.68942
-3.89189
52.4971
23.8049
-19.6003
-1.09505
-28.3625
-35.0489
40.1682
-10.5878
12.414
-30.1886
-38.5746
8.38653
41.4762
-9.44364
-19.6186
10.1319
6.27164
25.0727
10.1295
23.2257
-3.79021
-29.565
0.508165
23.771
-14.1496
16.4806
7.37078
-0.625689
-9.83778
9.01042
17.308
19.974
-17.3924
4.78914
-11.15
22.4638
8.66022
28.7431
-17.2165
32.0926
-43.6192
15.4781
3.42724
-9.64639
23.7235
-13.5689
-30.6531
17.3855
-11.0069
-3.65863
9.89415
-25.1641
23.9192
16.723
-9.81782
16.7463
34.5198
3.7774
-14.3779
10.4935
9.57134
-3.51509
-4.24353
0.824534
6.93408
-6.11194
-3.80867
6.40553
7.26651
-6.72836
-4.78167
0.510499
4.34537
2.41064
7.54389
3.6587
-10.6921
-18.4675
-17.875
20.9458
15.3967
-18.2311
22.1753
-3.98038
0.0361832
-5.22173
-0.426403
-12.583
-15.9797
-1.39748
-1.09032
-11.9346
-5.57301
10.9128
6.59484
-4.07826
17.6209
8.63261
-16.2845
-2.96978
15.2739
-15.2462
-6.26004
-24.4238
4.57793
15.7676
-17.2778
-7.57236
2.95031
-17.559
-3.2663
-8.9843
10.3656
-11.3607
-22.0858
-11.4529
-8.36865
-2.29474
18.09
-7.42662
-8.15672
-0.751384
0.539449
-11.6922
21.6079
-12.2104
-8.44568
0.69441
-0.405455
9.34084
-1.0799
1.16873
-9.42967
-5.41161
6.30677
3.13712
8.98142
-8.92936
-3.18918
-5.61583
8.75295
11.0274
0.417968
-12.5253
-0.79883
1.51557
8.26468
-0.348769
-11.3115
12.829
1.28009
-9.79149
-13.8776
1.38649
-12.9462
0.18295
-1.24597
0.342065
0.720957
-0.709875
-0.035354
0.928179
-0.319063
-0.500847
0.110035
0.0951876
-0.184177
-1.15698
0.693372
-0.633538
-0.136399
-0.652811
1.13128
-0.579137
0.123675
1.54029
0.172886
-0.449287
-1.26389
0.0781448
0.772451
0.689692
-0.47668
0.053977
0.257949
-0.561742
-1.48714
-0.334887
1.16921
-0.658066
-1.01325
-0.0223016
-0.0238345
-0.288751
-0.34349
-0.179452
-1.03617
0.557553
-0.652574
-4.20083
10.374
6.80934
-12.9825
-1.92928
-17.286
5.58776
13.6275
-16.3978
10.2677
-9.8742
-23.8096
-6.45633
16.1039
-9.64762
-12.3043
13.7901
4.10192
7.88703
-24.1779
6.4167
-10.8736
9.01575
-6.41731
2.46309
-5.06153
-0.616271
5.58687
4.04515
0.137523
-1.26046
-5.29437
7.95831
-1.61446
-6.20633
12.1908
4.96774
-9.2002
6.44632
5.12818
-6.90958
9.37267
0.327602
6.91388
-8.50194
-9.55527
8.26842
13.2405
-8.27271
0.00429502
-6.53947
0.867776
-6.29951
11.9712
-8.99199
-4.62058
7.0731
6.04601
-7.00169
9.86133
-8.90565
0.150201
5.89581
-7.50239
-7.40389
15.7741
-0.30206
-9.27312
0.583197
-6.60157
-4.18094
-10.6544
7.33299
-10.7592
1.95764
-0.0516063
-8.67245
-2.03511
-7.63458
-1.69015
-4.54823
6.45137
-9.53772
5.49542
-17.0453
10.7658
-0.340782
-0.563673
9.25771
9.99742
-13.1745
-0.997803
4.41946
12.9045
-9.90739
-7.41661
10.6817
0.440662
-6.70294
4.43481
19.1515
6.52348
-12.0449
10.6584
-5.13697
-9.94997
20.9083
6.2174
4.92418
-23.1485
12.0069
4.72197
-10.5495
5.228
-10.2112
16.8757
7.039
-15.5017
-8.41291
-5.66237
16.2912
6.24678
12.2173
-3.93707
-13.9426
9.45579
-0.400197
-2.0166
6.79688
18.9502
-2.23537
10.8824
-9.04723
11.0863
3.21287
-2.08189
24.0014
-6.11815
-6.53718
-7.79567
-2.08791
16.4208
-12.9085
-9.02677
15.3981
0.0285723
-7.82424
-12.9029
0.0229426
-1.15905
-24.5583
16.6906
6.56896
-19.6527
11.9247
-8.06885
12.5499
-20.4975
-10.1495
22.5781
12.583
-27.8912
-5.18929
2.43349
-3.13723
-18.6981
-2.72304
-12.4149
-3.62522
-5.39075
-24.5908
-13.7599
-10.8968
-6.90883
11.7122
-0.941765
-3.29956
-7.47091
-5.34137
0.12734
5.0166
0.197433
5.55704
-13.4174
2.51898
-9.41726
8.55684
0.987757
8.99684
-12.8571
-1.48258
4.03281
9.16201
-13.4951
4.69448
7.31807
-0.94888
-2.43004
-10.1162
7.43792
-3.36309
11.1943
-3.14638
7.01708
12.7341
1.29319
10.1775
13.0047
0.0926036
-6.23371
8.27468
-2.13358
-8.46506
11.3091
-2.7514
1.32599
-16.0248
-15.2527
-1.37259
13.7272
2.89814
11.9269
-25.8537
10.5543
16.8787
7.76913
-16.3731
-7.57412
8.54053
15.9122
0.195014
1.19591
9.22064
0.892511
11.6679
3.25522
-0.0299449
17.7911
-10.7493
22.3873
-5.83337
5.23321
10.4045
-9.8043
-8.03232
4.54864
-2.34969
-16.9425
5.52671
3.38343
-6.14663
-9.36559
20.7454
5.87782
-7.47581
-4.04612
-5.31947
-3.85712
1.63003
-16.7915
19.0186
20.625
-21.3217
-3.16048
3.9704
13.249
3.40559
16.41
-1.75558
-13.0244
5.32307
18.8944
-7.80747
5.80533
11.8612
-13.6961
15.419
3.93782
-19.2447
-0.112125
-2.08494
17.5039
-13.6275
15.8097
-1.38051
20.7195
-14.0159
19.287
-14.8622
0.824534
6.11144
9.68925
-16.6252
4.46184
6.79952
-10.4368
8.26611
7.1575
-10.9618
-2.92877
17.7905
-6.59558
11.5566
-8.37394
0.0490904
6.75043
9.73834
7.61518
-12.4086
9.40803
-4.61458
-2.5461
15.6146
-5.45332
0.158834
6.99867
0.993738
-1.84576
10.7321
6.90926
15.0952
11.8622
10.0741
-4.89378
-17.0426
-4.5196
8.7967
7.5851
5.55455
-12.2081
0.679776
18.0335
-6.50522
-6.79766
3.38625
-6.29872
11.8533
-16.5781
-4.85477
12.3293
9.10353
11.1535
-6.75402
-20.9776
15.6839
-9.05892
-15.3607
8.7358
1.63423
7.86445
6.1852
-6.00756
18.5406
-20.7067
7.95599
7.13774
2.50849
-17.1259
7.47963
6.51828
11.533
-10.9136
-5.85043
-17.5367
6.03789
17.3492
-21.0734
3.65373
11.5692
-4.93411
-6.10703
-10.0323
-14.878
-7.59278
5.62237
7.06204
-10.1759
12.1407
11.6117
-0.117923
0.0392208
1.3449
-5.07504
-6.70262
10.4328
-8.93212
16.3149
-11.685
10.2637
12.5505
-11.5955
-3.96301
6.64262
-10.6656
-1.47503
2.34057
-5.14669
-11.4049
9.98388
6.5677
-10.1989
5.05225
9.27286
-2.32487
8.88929
-15.8373
-0.926077
7.54434
-16.3144
6.44523
7.10779
1.9548
-1.51825
-0.656095
-7.41916
0.144284
7.93097
-9.1108
-1.3475
9.8022
14.1817
0.4987
-3.56
-11.1204
14.9821
-9.91123
-2.0169
-1.23744
-0.302211
-6.24861
0.553366
5.99746
-9.27351
8.9713
-4.03477
-6.9705
7.53995
3.46533
8.61969
-12.6545
-9.07428
-0.199234
12.6391
1.14431
0.374155
-14.1576
-0.21457
12.8537
0.93079
-8.86076
8.63181
0.983298
-9.24095
9.32981
-0.912571
1.05359
-8.07351
0.771312
3.41289
-6.15942
-10.7855
7.92123
-12.9999
15.8641
-10.6089
-0.176605
-4.78618
17.6886
-4.98118
7.32447
-7.63825
-9.37204
9.68583
-3.81646
11.1409
6.13319
11.1293
-10.1884
-7.07411
-4.47566
8.29212
-5.38511
-10.5453
-3.17814
1.30757
7.13682
13.8212
-17.2649
-3.6932
-11.7021
14.0527
3.57113
-19.1446
-13.6011
-1.27917
-19.4461
9.41612
-0.895718
5.23776
-5.85842
1.51637
-8.77953
7.88381
-7.56457
0.294959
-4.96599
-5.6311
-1.93347
-7.9366
10.4526
2.27636
-21.5085
3.41223
1.18193
-5.68388
0.0527813
-9.92869
6.52116
-1.81876
0.784952
-2.66623
-0.551939
-1.26682
2.69075
-1.23744
-3.70347
2.25016
1.37066
0.492257
0.82784
0.774034
0.149156
-2.16063
-0.586347
1.36038
-1.83601
2.21493
-0.965269
2.82817
-4.51503
0.808442
-1.12185
1.18482
2.15196
2.21226
-0.50594
-2.35228
-0.993685
1.23064
0.064672
-0.270859
-1.10808
1.31426
0.000831596
0.152794
-0.0889536
0.352436
0.106134
-0.49793
0.0393592
-0.241445
1.1134
-0.519524
-0.820313
1.90886
-1.32999
-0.184184
-0.636129
-0.10887
0.996916
-1.15891
0.76043
0.745715
-1.40001
0.503211
0.258051
-0.561531
0.955873
-6.44907
6.18293
-18.3393
18.6054
-22.348
2.97658
12.9223
-2.53944
-10.7367
-9.07187
17.9658
-11.5333
-8.97191
11.5347
-6.01176
12.4429
-4.64027
14.8976
-4.0744
9.871
10.7221
-2.50682
-19.7486
4.71036
-16.6547
-0.767611
-0.916898
-7.89831
-19.4931
12.5737
-6.90184
7.35776
-13.0297
12.812
-1.00588
-2.2352
6.94557
-17.307
-5.12255
8.8276
9.10697
-1.54228
-0.117016
1.12367
0.53563
2.0945
-0.509689
-3.12709
1.97749
-0.0855329
1.65826
-2.08241
-0.762625
-2.33807
-1.20175
4.30245
-0.507316
-1.12222
0.866906
-2.84539
0.485021
1.05532
-1.62587
0.486473
0.790355
0.867903
0.643917
-14.094
13.4682
-13.7812
14.407
2.40434
-3.44164
-13.0566
3.53902
11.6011
-20.205
5.06491
5.7689
13.6888
-15.9187
-5.18764
7.59198
12.6501
-6.30358
-0.577577
-0.349257
0.213464
12.7858
0.0819111
13.6069
11.683
13.2577
6.49537
-7.26549
-16.2085
13.6723
9.80169
-12.4501
5.41305
-0.228453
-2.90195
-4.16349
-9.14302
-5.17514
-10.1769
8.29919
-8.15975
5.2736
-3.30352
14.1592
-12.4802
3.56575
-5.24475
-9.34118
15.9439
7.55641
-7.51768
-5.98699
-16.073
-3.92482
10.8268
-7.26106
-10.6342
-4.50728
6.98169
-11.0719
-4.73738
-11.7683
-1.75573
-1.70284
-0.0158473
3.47441
2.98573
-1.54948
0.275524
-1.71177
-1.79709
0.434253
1.22443
0.138413
-1.32929
2.51731
-1.18802
0.598831
-1.92812
-6.48475
0.726328
19.434
-13.6755
4.42633
-11.4405
0.529434
-13.0842
-6.02891
19.8394
-10.5691
-5.52
3.00492
14.0404
-10.9742
-15.589
12.5228
15.5375
-7.52603
-24.1991
2.65583
1.37059
2.81279
-5.41665
1.23327
3.67759
-4.4084
2.10139
6.62902
-5.95949
-4.92858
4.25904
0.610754
5.55485
0.463422
0.528396
2.89515
0.728965
3.47703
1.18559
-5.17355
-1.42869
-3.00531
-0.217495
-0.475553
-3.87088
5.49629
-1.14985
-1.73887
1.99229
0.847662
0.224198
-6.24541
1.1139
-3.27155
-2.67662
-6.54475
5.35049
-5.64539
1.2299
1.18717
-6.92246
-0.846763
-0.815258
-4.88273
-5.37825
-3.70449
4.0764
-7.8863
-5.19862
5.42724
7.65768
-0.805483
-2.37977
-4.70105
8.37444
-4.26979
-4.91014
-4.64064
5.02826
7.98682
8.43516
-4.20991
-8.49505
-0.484624
4.27914
9.79597
-3.55077
-8.62496
1.43821
3.15914
10.638
-0.182455
-7.62957
3.44046
-1.06189
-10.7776
-11.6257
7.01301
2.88053
-6.37089
1.70284
5.34737
-7.81555
0.765335
-6.13143
3.96554
3.86874
-14.5388
-0.35946
8.00103
6.8972
-5.22869
-0.878096
-8.43199
8.39414
-1.39599
-3.05186
-3.94629
-5.0935
7.35621
-10.1452
4.69221
-5.31365
-10.0602
2.38584
-3.11449
6.07602
-2.66377
9.01515
8.50564
-4.28119
-5.62044
-1.96539
2.65548
-11.9226
3.94596
0.066356
7.91025
-5.59852
-7.20215
9.28322
-1.46897
-6.89655
6.55149
-2.72266
-8.11003
4.19389
0.392213
-5.01159
1.73302
3.34493
-4.83622
-5.77388
2.81241
-9.02785
-15.1996
12.5733
15.4352
-12.8089
-2.49823
-17.5756
8.65903
11.4148
-26.7482
10.1653
14.0847
9.09949
-13.4692
-13.2059
-9.88608
-7.76264
0.520052
-12.3415
-1.15103
12.9724
-0.971621
11.3333
-9.84165
12.9043
-13.6705
-0.205411
-11.3861
10.1451
9.89997
0.608297
-1.69945
-14.1085
-16.1856
15.6391
10.7118
9.73782
-11.8737
15.9713
-12.9531
-1.03996
2.20852
-2.42283
-1.36245
17.8736
-14.3026
0.0455581
-2.2394
2.23574
-0.0419073
-0.189115
0.234674
-2.2367
-1.21699
-0.0716882
3.52538
-2.42582
-8.71581
-2.47382
6.18078
5.00884
0.197061
-1.49601
-7.41685
3.74944
-2.5325
-3.64276
-0.26917
2.80161
-6.86369
4.01978
0.370091
-1.12923
-5.5374
0.239279
-0.444575
0.439969
-3.12935
-0.189238
2.35329
-4.47309
-0.452613
6.36423
3.37793
3.90927
8.45122
-15.3326
2.97214
8.6585
-11.9466
7.19737
-18.7781
-5.69749
11.4849
12.9907
-15.9476
0.103518
-2.93405
-6.46592
-12.2223
17.175
1.51319
8.35227
-4.83391
-9.98427
7.79106
-7.49328
8.15344
-0.191729
16.6413
-9.39165
-1.52263
-1.03233
-16.372
11.0854
8.65637
-24.5757
14.969
-16.1059
7.53466
-14.8259
0.314549
17.8061
-2.73356
10.5126
-5.10847
12.402
21.8058
4.57325
3.89763
-7.1138
-5.40879
12.4456
5.47854
-8.25059
-9.67361
3.71054
4.87899
3.85613
8.69791
-3.31072
-1.48956
3.42222
8.43483
-1.23732
-3.73598
8.39551
-2.60256
4.24576
-5.06272
-12.935
6.37208
7.54786
-9.54782
5.71049
9.13399
-2.1931
-1.46234
6.98198
7.031
2.89452
1.48489
6.70641
-10.2157
-2.64283
-0.90265
-17.5636
-13.0792
-4.06509
2.08415
23.5414
-21.5605
-17.4729
0.190416
13.2174
-15.4733
-3.64071
1.64102
-1.81696
-12.8021
16.7032
-8.63478
7.00824
-7.42223
-11.5215
3.47043
11.2888
-4.53797
-14.4696
7.71876
18.2932
3.12583
-10.1303
-7.68996
13.1811
7.71212
9.78204
-6.84599
-10.6482
15.0165
-7.6045
0.300138
-19.5846
8.4897
3.40498
-6.67678
-14.2743
14.1292
-2.89854
-4.64507
-10.3817
-16.029
-10.2799
6.64078
6.08609
-2.44694
7.72009
-12.9643
-5.03569
-10.4009
13.3358
3.03077
-5.96573
11.559
-16.524
-5.43585
3.0052
0.0526266
8.50113
12.5482
3.79283
-13.9975
14.2869
6.35142
0.0946814
-6.37212
7.63807
16.2365
-17.743
-6.13161
14.75
-7.01721
12.02
-2.90309
1.97458
10.7527
-0.179072
16.3581
-4.89504
4.77344
15.6603
15.4478
1.58292
12.4116
0.945484
16.58
-1.86515
16.8153
-8.41942
-6.99998
2.8232
12.5962
-9.14398
-2.96383
3.68839
0.984654
-10.8155
0.686838
11.6848
-12.5289
1.82874
5.77636
-9.88568
1.14549
-0.147089
4.83191
6.1289
9.76196
-10.1145
-5.71569
14.6678
-5.77311
-2.80411
-1.30847
3.5416
-7.78618
-1.52853
2.82142
-10.0953
-1.47106
-8.23641
-4.14822
3.35577
-4.92324
-3.89214
2.75994
8.96384
-7.83164
3.35199
-3.71242
-3.53171
-2.40018
5.27629
-5.68021
-8.00152
3.70621
-6.12059
-12.4396
27.1888
-6.81692
-7.93228
5.01284
-16.6152
-0.837254
5.34894
22.5769
-22.913
-0.591446
30.2416
-6.33398
-23.3162
7.32849
14.0691
-34.908
13.5104
22.1215
-17.364
4.9732
19.9022
2.31338
20.7763
6.77381
-2.54865
18.5898
4.73517
17.3178
2.2551
16.3331
21.2371
-8.42818
-8.60783
35.6258
25.2227
28.8189
-17.5245
7.9092
-1.88609
-10.5843
4.56118
-10.8827
16.8004
1.99148
-12.6861
4.55661
-1.62345
9.75291
-5.32535
-12.8791
20.0782
-1.87374
15.0097
-6.82359
-13.5115
-1.70803
4.03169
-11.2425
3.79947
5.55697
19.8256
-19.5435
-10.8664
-9.90584
18.8488
-7.24455
4.71485
0.821668
-2.65422
-11.4139
-5.53879
-0.988899
-3.55698
-5.94234
-10.0442
-16.5312
8.66452
-2.03913
-7.59655
-12.4916
-4.35516
-7.12596
-2.75749
-10.9884
6.14933
-9.76688
4.04206
0.350983
1.68298
-7.17469
3.79738
7.41937
1.0161
0.824363
4.52895
-0.0867199
-1.62981
3.56166
1.31827
-3.23017
-0.884244
7.91179
-3.588
1.37393
8.00925
-4.746
-0.920673
-2.34258
2.82079
7.61088
-2.42241
-1.48779
6.85567
-1.16045
5.4982
-0.885172
-11.9269
-2.63844
15.4506
-8.7922
10.2131
-2.3061
-14.0685
6.58656
-2.20033
9.68225
-1.613
-0.00710784
-7.17209
-2.35523
-11.1847
-10.183
10.0129
-2.46827
-12.0632
-1.97623
11.9149
2.12453
-5.84874
-20.2829
-3.70628
0.109794
-6.65981
5.87343
11.0319
-10.2455
-20.1188
-0.563743
14.0227
-6.93374
7.93976
-15.345
14.339
7.21156
-19.994
-12.3456
-3.18743
11.8268
-5.81484
-6.36415
-10.9489
0.687773
14.1347
-4.2344
-10.5881
17.8141
-4.73113
-12.3952
-5.26456
16.4367
2.96262
16.4243
-3.87482
-3.35496
11.9584
-13.3346
2.35126
8.14545
-13.8517
-0.0971508
-12.8167
1.77804
11.1358
-7.27128
0.671981
6.50215
-2.22316
6.91026
7.20229
6.99889
7.32233
16.3166
8.32563
-10.2088
2.31173
-6.98299
-6.01422
8.58096
4.75559
-14.0671
-3.11614
11.1691
-3.42978
22.1909
0.206234
-4.94521
-17.4519
13.9057
-1.36072
9.64593
5.15226
-11.4305
20.1839
-3.79754
17.5944
-8.11399
-5.68283
21.143
-12.1313
-12.8092
-22.5983
29.2873
-6.48275
-5.47331
-13.1628
-3.9622
-7.8772
-1.67705
14.7065
-13.4731
4.23522
-8.59341
9.68214
16.5056
5.88987
6.65974
-16.1192
8.53589
-5.43719
-19.0698
8.38788
2.25642
-19.8249
5.74195
-11.5995
0.456849
17.4
-17.1822
6.86383
10.7752
-16.9135
14.8689
29.7531
-25.7287
-22.7219
18.6975
-1.86193
16.1723
15.4427
-4.21323
27.2419
-10.6933
-12.3354
12.395
-24.3907
29.7308
-17.7351
-16.7598
3.42605
15.1808
-32.1652
15.1225
6.96555
10.2549
-41.6112
-20.2049
10.4107
-14.4152
25.3827
-0.442477
13.9814
16.2947
-29.8336
-12.3911
9.95668
29.1206
-26.6266
7.76087
-26.8851
12.0274
-10.1555
45.7279
-28.3133
-3.37782
-14.0368
25.108
30.0399
-9.42004
-21.3551
28.2745
-19.9106
12.9912
-36.8761
-12.7923
46.7473
6.63522
-4.95756
-31.0772
-0.841322
13.0041
8.77831
-41.6931
-19.6753
-20.2872
25.5159
14.4465
-15.5315
3.12687
-7.27066
24.1733
-30.4734
25.6287
-19.3286
26.4808
10.6967
-4.05124
-26.6051
25.6988
-1.92255
-34.4526
5.90173
-24.6251
0.350576
3.98736
-23.1187
-17.0379
21.4913
4.48794
31.6584
16.3137
-29.0925
3.95938
9.10863
-1.58303
-11.485
-11.9964
11.4723
4.48347
5.72317
-12.8132
-4.90639
-8.7303
14.7189
2.15309
-8.14164
11.2956
-16.5852
-3.44071
-4.51948
-2.46043
18.4522
-3.73042
8.31957
-1.06409
5.64538
10.1376
6.5011
11.4019
-3.52562
14.5868
-6.6676
-0.400092
2.70231
4.36539
-3.87315
0.102609
-2.89706
2.31437
-1.64526
-4.54226
0.793899
1.12038
-0.406013
2.32474
-1.12483
2.26702
-1.1123
-1.56073
-1.11549
1.4075
2.03273
1.26732
-0.11579
-5.17734
1.92983
5.94981
-2.94641
-2.12832
0.484069
1.50973
-3.63906
2.66591
-1.31351
0.260004
-1.61241
0.750884
0.742737
1.17229
1.51411
-2.14235
-1.65014
1.27389
1.12714
-1.44954
0.989176
1.55203
1.50688
-2.94355
-4.04312
2.63308
2.15277
-2.27623
4.74126
-0.178351
-9.62317
-10.3656
24.2533
-4.26453
-15.2761
-18.1972
23.8502
5.87903
7.88318
-0.153921
-13.6083
-0.258705
-9.13837
6.5003
-8.98277
-12.826
1.96954
25.3649
-14.5084
-0.907628
12.335
-6.40643
16.5012
-10.3535
8.49804
-15.0584
8.31419
-16.7506
7.52878
-6.20739
-7.34703
15.524
-9.19597
11.3028
7.92774
5.61764
2.95584
-4.22092
-6.02937
7.43439
-16.857
0.226614
8.0151
-12.5799
5.86844
-4.04032
-1.96778
0.139652
-1.49067
8.41508
-1.05597
-1.05244
2.54339
-5.92215
4.43119
1.38701
-4.51727
2.07781
7.32699
-8.20708
-3.16023
8.37971
3.88816
-2.60936
-4.70397
3.42517
2.31597
2.9592
-0.902448
-1.25276
-3.76694
-3.40442
-2.0153
-6.25533
0.241559
10.8175
7.69688
-4.15273
-14.3616
-1.18058
5.3484
6.64964
3.19455
3.32176
6.86898
-0.143578
-3.53086
2.64051
5.10772
-11.901
-11.592
2.33343
16.1276
-2.34195
-0.330724
-8.91938
4.07046
-7.19629
5.76634
8.99672
3.05818
-6.94718
4.18675
10.1584
9.83244
-10.1563
-2.01812
16.3526
-3.02764
18.9235
14.9953
0.456416
-34.3752
-0.0603696
26.3592
-7.37533
-41.5103
10.2208
15.9513
15.3382
2.42094
-14.7034
-29.2278
42.8482
-12.2561
-28.1712
28.5441
24.525
42.9114
-40.1722
2.66512
28.6144
11.6319
-11.9721
16.4995
-4.58772
9.68945
-21.2051
-28.3501
21.8307
9.1845
14.0936
-16.0846
18.2408
-23.2548
13.9815
43.177
12.0376
11.5708
-5.36769
20.8
7.18893
-17.5269
8.9906
30.367
-9.43664
6.0034
-13.0536
11.228
22.6256
-3.84196
2.3592
3.22085
34.2001
4.91683
6.73772
-27.2422
15.5877
10.613
26.876
-32.5722
0.535706
19.7902
-13.5882
32.0962
-20.9475
36.9798
-16.0923
5.98854
46.7643
2.97039
-22.1174
-27.6173
22.2914
18.0244
-20.5255
23.6237
32.1561
-23.6836
46.2232
-0.308207
1.24915
30.3146
15.2006
-45.286
15.3425
31.1927
-18.4416
18.1919
-45.0362
33.7557
-12.7609
-3.32745
15.2365
20.247
18.801
24.0947
12.6063
-4.90433
26.0538
10.9609
20.4464
-18.6014
32.1698
1.77401
19.1161
-0.577977
15.7513
-0.146193
16.7583
-3.84272
-12.7694
-4.74688
20.7109
-16.1103
-2.94727
21.1822
-22.9818
13.0037
1.03266
-16.9837
5.91942
13.6133
-2.77441
21.6886
4.94176
-5.0621
14.147
3.91883
18.3712
-2.2512
12.9202
-15.7303
-17.8494
-13.8622
10.451
21.2606
2.75867
-19.6933
-0.914814
16.4082
3.99498
-1.19587
13.6091
15.1125
1.05532
5.52076
16.4956
-23.2687
-1.27502
3.9084
0.423175
14.0228
3.06335
10.8533
13.5246
5.90201
9.68567
3.1863
-6.857
10.3435
16.3532
-5.41803
8.28116
-8.19768
5.33456
-0.243557
-3.72496
-1.44952
-9.94852
8.75303
-7.97435
9.16984
-3.11472
-12.4547
5.6209
-6.27982
10.8019
4.23099
-4.87509
-1.64829
-6.73165
2.2105
-7.92184
12.443
5.10549
-1.03528
-2.30664
9.62263
-6.70541
12.6799
-12.8914
5.61444
-0.920743
-9.63797
-6.97836
-9.45199
1.46217
6.80102
-0.468368
-0.773983
-5.55867
17.5495
-18.6703
-5.90008
4.80911
-0.302012
-6.06643
8.53063
-6.78667
-7.51118
5.76722
3.79795
1.86843
2.86425
-9.01042
-10.8253
6.96652
12.8692
1.84499
4.44295
-13.0746
7.59791
-14.7633
-9.71982
6.2978
-6.62237
10.0444
5.68517
-7.80709
-7.71514
3.18065
1.9513
2.58319
9.1525
-12.4247
7.07518
5.03486
-2.95754
4.96815
5.28769
1.89386
5.7426
-9.01103
10.3278
3.65134
-0.178214
-5.21531
-3.09583
16.3739
-8.06273
-26.5325
1.06583
14.0687
11.398
-1.65842
-26.2775
1.40343
-16.0389
-2.54942
13.373
7.94908
-0.858533
-23.1294
-20.5691
9.92235
11.7125
0.121008
-22.3485
-5.42531
12.2518
-17.9218
9.94706
-19.2409
1.44014
18.393
2.32092
0.826112
-21.54
7.87155
11.9431
-1.42167
-6.97463
-4.6636
6.25747
5.38076
-13.8592
-8.59277
15.4773
-13.0418
13.6917
7.22162
2.03757
-12.7585
-13.4157
11.4997
2.15936
-14.749
-4.64575
18.7588
-0.421265
-3.47628
-18.2011
17.0137
-24.5895
3.03605
18.0772
-2.14493
-26.1988
3.75426
-21.0216
0.675658
-16.8139
15.2042
3.41531
-22.2776
0.290665
-23.0742
-14.4856
-17.3148
4.04133
13.7605
-0.48707
-8.25815
5.30467
-14.3613
-1.53984
6.50691
4.88115
-9.84822
12.2586
5.90801
-19.7064
1.24077
10.978
0.0398144
7.15048
0.5972
18.6488
9.03876
-15.3893
-12.2982
11.8384
7.82024
-1.00983
-16.6702
10.7741
17.7344
-5.39162
-2.23979
9.2246
-12.6016
11.05
2.21589
6.76001
-3.91349
2.45814
16.0704
4.45009
-14.8314
5.35015
-10.4478
4.23034
16.9916
-4.86146
13.3977
4.80285
9.09886
16.2063
-9.23468
26.7269
5.12759
10.1089
0.630813
-15.8673
10.3195
-11.7465
6.55457
-4.71261
1.15999
13.8721
-2.81158
8.20783
3.5006
-0.36548
-14.8816
-8.70685
-3.37631
13.2431
8.4419
-4.07742
2.64581
-7.01029
5.6488
8.01586
-4.32266
-9.342
11.4861
2.78053
-8.61787
0.726197
12.1062
-4.81657
13.2067
-4.03858
-7.59526
2.38902
2.60019
6.07437
-10.4934
9.71723
-6.67562
8.28851
-1.0642
6.30337
0.502946
-4.72473
-2.08158
1.28276
2.99607
2.02454
-3.85199
2.35395
2.78081
-1.00869
-2.34035
4.25563
6.8916
-8.15117
-2.22273
7.87741
-3.30073
-3.69588
9.11058
-2.7679
-2.6468
1.94113
-5.32164
-0.31537
3.13963
-1.67497
-2.47335
-5.27514
6.19204
2.98986
2.25413
3.86658
-6.40194
4.11666
-6.13578
-6.93494
-4.97391
4.71905
7.1898
-9.17216
0.998051
1.23917
-2.40551
-2.99605
0.427645
6.8877
-8.53914
-0.754068
5.87824
-8.68559
9.69504
-6.55032
17.1476
-4.44893
-7.71927
7.19275
-8.90659
2.7119
-5.58257
6.225
-8.43507
-0.0103757
-0.0936924
-4.15238
-10.1158
-9.07512
0.124196
0.0443289
13.4297
-0.361939
-11.3559
-1.71188
16.4762
15.6661
-19.8338
-12.3085
4.04146
10.8843
1.55041
12.0917
5.3795
14.3976
2.98865
-1.72018
13.0611
12.2208
23.9227
-12.1766
-3.63885
-8.10715
0.475743
-1.89318
25.3401
-15.0407
-0.65708
16.1735
-15.1257
22.6253
-14.7142
-11.55
-1.1055
21.8376
23.1745
-17.0024
-6.4653
0.293269
0.603313
21.4657
10.8121
-13.4867
-14.3278
15.5374
-1.73665
-1.06755
13.4716
-6.45211
-14.7274
15.0732
13.0944
-0.30844
2.93082
-15.7167
1.75365
13.9709
-2.63019
21.74
16.7862
-23.1597
-15.3666
-3.02404
10.8462
13.9179
5.21004
8.55213
11.744
2.46894
-14.5214
-1.72216
15.2198
12.1589
12.6582
3.20151
-23.4304
-19.5253
7.05088
11.519
0.955438
-12.8413
-0.920066
-5.76396
1.19181
17.3024
-6.33536
15.2121
-0.0192949
-11.9913
10.2676
10.1545
2.94857
-13.3209
-18.9817
4.97821
21.0544
-13.1177
-6.78414
16.4376
-10.1884
-0.917106
0.680166
-0.886555
1.1235
0.52812
-2.03303
0.587801
1.5833
-1.67555
0.620367
0.146033
2.11744
-1.5366
-0.148396
0.79844
-2.02103
-1.54859
0.400921
1.11178
-1.6611
0.512726
2.19738
-2.30919
-1.8412
2.49996
-1.08705
-0.239368
-0.655213
1.98163
1.56171
-0.746533
-1.90223
0.783402
-1.05179
1.8301
0.789495
-1.11917
-1.34587
-0.268299
1.23204
-3.09775
-1.02836
-10.3404
14.5647
-15.4149
11.1906
7.70029
-0.147942
-17.8928
0.987823
-3.20299
9.91546
-4.47247
20.025
-24.6441
-1.03503
5.29501
20.3841
-13.5784
-1.5144
-9.55128
1.61936
-5.27399
-11.7603
-3.22362
-15.5813
14.3324
-18.4127
14.1541
-11.9735
-20.0176
18.0828
-11.1441
-8.45311
20.1748
-9.95367
-4.00825
-8.28445
-0.783277
-2.07634
2.99127
-17.0123
5.73654
-18.9359
4.45673
7.39664
-11.8534
9.03244
-8.14669
3.57098
1.75794
-2.7346
8.3733
-1.18593
11.9763
1.86751
-13.7209
-7.26964
0.990458
1.23438
-18.0043
1.85809
14.9118
-15.7065
2.98976
13.9511
-22.0552
19.6756
1.85483
0.524737
-2.21923
0.249187
-20.0851
-3.2589
4.93025
-19.3564
0.391043
-10.7872
12.591
-0.749804
1.22525
-7.74508
1.51664
-15.9873
-14.4806
13.6041
14.2082
-14.9108
1.58245
-1.16962
-17.9376
-10.7315
1.12899
7.2257
1.48818
-9.84287
2.41807
0.210375
-13.5155
10.8871
16.7078
9.35193
-18.9699
-7.08984
-9.47664
14.7154
11.469
-6.86891
8.92391
-2.70857
0.653576
-9.08436
2.51179
-0.296339
15.1454
2.74711
-15.4744
-6.48519
12.5462
0.749015
-4.4871
-9.89246
10.3371
-2.87081
2.42615
2.43324
-12.1153
-3.26776
8.39486
4.22484
1.50841
-18.045
-7.21922
8.19834
-9.79154
1.10716
-3.69891
12.3833
-7.99183
-24.4872
22.6875
2.33228
21.3976
-13.4089
-10.321
-12.2209
2.33783
3.8305
6.05253
-12.8575
-15.5794
16.2161
-21.9519
1.10257
-6.9594
10.3532
16.087
-19.4809
-3.46712
-2.38512
-7.33067
-8.84097
18.5039
-8.77567
-10.3364
11.7814
-7.22704
0.789201
0.655218
0.857047
-11.9718
2.29055
-8.531
-10.6678
-7.4615
6.28599
-7.68029
8.8558
-10.9332
6.48195
-3.01027
0.208379
-10.9606
12.4032
-1.65097
-9.69035
-1.03445
-6.17452
-3.65509
16.1156
-6.24923
6.55666
0.239548
-16.1777
9.68894
-22.1662
8.63008
13.7757
-0.919021
6.9643
-15.7356
7.45103
-19.3307
3.84
-13.0534
-6.78034
-11.5459
-0.292769
5.01571
-10.5652
15.5402
17.4357
-16.765
6.57772
47.7945
-29.1692
-1.74463
-16.8806
1.34634
21.6873
24.7609
-33.767
-2.74615
23.8904
12.6227
-19.9023
-43.034
-25.6725
12.9163
14.1026
-17.3059
-10.1112
-27.035
14.1453
10.1435
-12.239
8.99672
-23.7927
0.560894
-32.7021
8.68586
36.8918
10.2218
-14.7634
17.458
-32.7599
29.2633
17.6419
-5.62634
-18.1369
16.3328
9.93422
-25.7061
25.9159
-7.0083
14.1635
-15.1366
-2.63361
2.03368
19.1001
-14.7922
2.04321
14.4233
-6.88552
3.24105
-15.008
18.6524
16.0148
-18.3275
-1.2473
4.76031
-7.08263
18.3371
-11.6056
-0.392094
-10.8348
22.8325
-1.78237
-16.7087
-2.86856
22.611
-5.61936
0.750025
-13.4581
-10.241
19.5429
-9.69402
3.26257
-15.2859
-19.6508
17.294
2.59189
4.11283
15.9026
-22.6073
7.71673
24.8864
-30.0113
13.3775
-9.38645
10.4077
17.3144
3.41781
-1.18935
22.1626
7.83738
6.70591
-26.417
11.1921
-16.5607
-6.17837
9.20711
8.38609
1.42227
18.7787
-9.00886
10.3949
9.80307
-13.4921
-6.53266
18.3498
8.7004
3.89994
11.6181
7.10289
-10.0206
-0.891727
9.65484
1.94094
2.23292
-15.2189
11.045
15.2922
-6.65339
6.92364
-15.5625
-4.50181
-0.988705
20.7827
-12.7884
3.50146
-2.09969
11.3867
4.11793
-14.9654
-4.41443
14.9316
-15.019
-9.92838
-3.82793
12.7676
-16.6008
0.0190282
21.3681
-0.928418
-9.97865
-10.4611
2.14686
2.20383
17.0175
17.7048
-9.2437
-9.38953
4.4836
15.3681
12.9325
4.0151
-12.8297
-0.166862
-0.460309
-12.7091
17.1845
-4.20493
-12.2344
15.979
19.3983
-11.7271
-17.6499
17.1877
13.895
-13.2394
-13.6991
14.1662
10.0661
-19.8353
-4.39695
-7.25043
12.1649
9.25173
6.37274
-3.55708
-15.6716
4.0707
12.2912
-0.690291
-17.4451
-11.9541
13.7275
2.26175
-14.5867
18.6977
-4.45309
-11.716
18.4308
3.69281
12.5428
14.2931
-13.1461
-5.60012
19.8651
-9.93014
4.35812
4.42006
20.98
-5.53491
22.9386
-14.8257
-10.0305
-2.2219
-4.35819
16.6106
-15.5205
14.9376
-9.44762
9.86029
-6.94823
-2.91206
3.46372
-0.755898
13.852
-16.5599
0.0977357
13.2263
9.22332
-4.695
-6.75022
1.51907
6.62917
-2.36452
-5.78372
9.02665
-7.50758
2.07842
2.41126
-12.9948
9.8276
-6.75049
9.25949
-8.48539
-17.7172
19.4521
-6.40697
-18.561
-15.5529
16.3968
-15.5171
-9.45088
-5.39107
-3.36021
-6.80166
-14.279
-7.13164
1.77688
11.7032
1.45329
-14.9333
-17.65
15.4699
3.95702
0.544572
-0.6535
-17.5411
-1.52912
-0.126257
17.1253
-1.43837
11.6124
6.06227
-22.8903
18.7057
-1.87763
13.9692
-12.7637
4.8568
16.6657
-2.96252
-17.473
3.76977
17.4494
-0.783652
-17.9939
-2.03174
19.8994
-0.758457
13.2892
5.70625
-1.50668
-27.0899
-9.50478
2.44734
19.7179
-1.43246
0.420292
1.287
17.6724
16.2205
-20.6897
-1.15988
16.5967
17.2634
-18.0081
-20.9839
-18.7201
27.4613
12.2427
-5.74648
-30.7499
15.5124
9.62738
-2.72007
-25.6274
6.21429
34.6548
-13.4078
-29.365
-10.6251
17.9594
22.0307
20.3213
-34.0707
5.02289
8.72657
-6.03972
32.5753
-30.5238
-4.75276
5.91149
-25.7693
1.32592
0.199282
-21.3605
-4.60803
35.3512
-29.1831
-5.96887
24.2339
16.1402
-13.3737
31.5679
25.7878
-37.2239
-1.93769
5.15867
-22.6853
-3.83393
-24.863
0.838596
2.1551
-2.92788
-2.62609
3.39887
-0.998113
1.05938
2.09383
-0.246139
0.279343
-2.96109
3.5827
0.10432
-3.93316
2.65057
-2.35759
-2.0072
1.71422
-1.39027
2.52002
1.52082
1.19432
-0.344093
-1.90918
-1.86184
6.59415
0.553745
-21.1091
13.9612
-5.70953
5.60672
6.69696
10.816
-0.718783
4.30876
-14.406
14.2294
6.91557
-20.5913
-12.62
12.8414
17.0676
-17.2891
-1.42311
-11.1969
-12.1284
9.79762
13.1468
-13.5515
9.91419
3.59647
13.7361
-8.9449
2.12436
-4.51694
27.156
19.1334
0.923413
-2.87038
-14.515
16.462
-1.8922
-12.7642
15.5798
2.63109
1.41322
-18.3713
14.327
-15.2251
15.964
-15.2707
13.8135
6.43819
-12.381
-8.57218
-6.326
-4.30378
-16.6081
5.68678
8.07991
-4.1556
2.37887
-6.30318
-18.7399
11.5491
-2.28956
-20.6059
-10.6298
-1.48198
-14.5105
-2.9178
-15.1722
1.40319
-16.0738
-12.1444
13.1068
-13.6065
5.34729
-4.84763
-6.92019
7.18249
12.8445
8.4482
-2.5132
-19.5415
1.52801
9.39291
4.16921
-8.21484
19.3752
-2.79982
-7.66449
9.1925
-11.5467
1.54677
11.9684
-1.96841
-5.38055
-13.8307
-17.2131
9.31938
10.3366
-14.6486
-14.8347
19.1468
-0.309998
10.6466
-0.60072
10.9102
1.57182
-11.8813
2.16404
-17.4134
9.50338
9.40475
-7.99789
9.19338
-0.809135
11.7822
-9.40129
15.5667
-14.2118
0.334727
13.5082
-14.2386
0.39567
4.29903
-7.0104
18.278
-0.733322
-13.1018
12.9545
0.880675
8.46006
-3.69995
0.00289936
17.0531
-12.7121
-0.0419897
-0.231261
17.8865
-0.602103
0.625941
8.16885
13.3491
-4.62982
-18.9328
17.8567
-14.8424
15.9185
-11.786
-2.95846
-4.18839
5.01099
-1.70963
14.5553
-26.7185
1.78998
10.0862
-22.7743
-15.7302
-11.7665
18.2387
-1.46116
18.4637
-14.7059
-6.71623
12.083
4.67109
-19.8928
9.91622
31.3848
-8.3729
-33.1031
10.0911
27.2338
-15.7417
19.1837
4.45348
-7.19323
-16.4439
12.7752
5.24742
1.16104
2.00963
-33.1568
-13.7224
14.0201
12.4775
-7.15105
-2.11791
15.959
-21.1425
6.50044
12.3799
11.0402
-11.8775
-11.5426
-6.02668
14.4857
3.92089
-21.4671
4.07895
14.5972
2.79101
-9.87021
-0.556707
18.7606
-12.625
1.80286
-7.93848
23.7416
-7.08845
2.1075
11.492
0.145796
-23.5153
8.30671
-2.84135
13.6858
4.87882
11.2587
-22.5819
11.469
6.90324
-8.26948
-17.6327
-16.8507
21.1363
13.3471
1.43704
-10.763
-8.51046
0.0651629
35.1551
-22.248
-12.9722
32.4915
-11.9276
-20.4987
5.22318
15.7248
14.2071
18.1261
19.5885
-21.5112
-6.38814
5.65134
11.1971
13.0086
-8.48094
-11.0194
2.27274
12.7304
-3.98379
-11.5206
-1.88023
2.3814
16.6729
-4.68856
-12.8888
0.904486
11.3736
-6.2213
-15.7539
17.2413
6.1057
-7.59304
6.759
-20.6392
-1.87369
-1.95254