/*--------------------------------*- C++ -*----------------------------------*\
  =========                 |
  \\      /  F ield         | OpenFOAM: The Open Source CFD Toolbox
   \\    /   O peration     | Website:  https://openfoam.org
    \\  /    A nd           | Version:  10
     \\/     M anipulation  |
\*---------------------------------------------------------------------------*/
FoamFile
{
    format      ascii;
    class       volVectorField;
    location    "15";
    object      U;
}
// * * * * * * * * * * * * * * * * * * * * * * * * * * * * * * * * * * * * * //

dimensions      [0 1 -1 0 0 0 0];

internalField   nonuniform List<vector> 
75457
(
(5.00644 0.385934 -0.804426)
(5.16468 -0.454432 -1.06326)
(7.15401 0.564593 -0.645884)
(9.29578 0.16207 -1.02844)
(3.85556 1.68276 -0.0151474)
(4.00339 1.85667 -0.184698)
(5.42294 0.078564 -0.587768)
(5.14253 1.08083 -1.03682)
(10.2655 -0.140749 -1.20938)
(10.0729 0.0960343 -1.0115)
(10.2641 0.273569 -0.972685)
(4.23656 1.14086 0.149945)
(4.33048 0.89963 -0.301376)
(9.0098 0.401545 -0.473549)
(11.9875 -0.341242 -0.0906296)
(12.0815 -0.339501 -0.0766719)
(12.4469 -0.407799 -0.242541)
(12.224 -0.432059 -0.294694)
(12.1652 -0.373722 -0.104002)
(12.4572 -0.35339 -0.176052)
(12.2726 -0.406245 -0.256421)
(12.3493 -0.400635 -0.12332)
(12.0535 -0.363246 -0.0958805)
(12.0503 -0.370155 -0.13053)
(12.3278 -0.422034 -0.110079)
(11.8164 -0.413684 -0.270771)
(11.7682 -0.442215 -0.293795)
(11.2044 -0.62293 0.208042)
(11.0482 -0.661535 0.296079)
(11.1346 -0.614084 0.181945)
(11.3151 -0.562298 0.174849)
(10.9586 -0.612035 0.240709)
(10.9697 -0.604361 0.256139)
(11.6228 -0.469623 0.222659)
(11.6002 -0.444669 0.189159)
(11.7616 -0.474044 0.360307)
(11.6826 -0.505621 0.248476)
(10.9218 -0.65272 0.301514)
(11.0434 -0.631894 0.303236)
(11.6632 -0.407848 0.23129)
(11.694 -0.42156 0.249689)
(11.6689 -0.435218 0.250733)
(11.7333 -0.51541 0.360236)
(12.822 0.585489 0.647255)
(12.5458 0.607561 0.593057)
(13.0308 0.597517 0.62531)
(13.0413 0.569833 0.648855)
(12.7782 0.625375 0.666852)
(12.4598 0.238787 0.12176)
(12.6925 0.360966 0.223435)
(12.7008 0.371643 0.208579)
(12.5352 0.256644 0.169425)
(12.2383 0.28438 0.0442766)
(12.6192 0.353919 0.198932)
(12.7549 0.330563 0.263574)
(12.7601 0.335842 0.233524)
(12.3364 0.373298 0.135864)
(12.3595 0.371392 0.117707)
(12.4221 0.239282 0.0778423)
(12.2026 0.272364 0.0314405)
(12.2887 0.328584 0.0907282)
(12.5166 0.257671 0.129471)
(9.93197 0.056816 -0.2941)
(9.93971 0.0670542 -0.318643)
(10.1251 0.0902691 -0.249833)
(9.92467 0.0622616 -0.288302)
(9.94819 0.0568748 -0.269814)
(9.89671 0.0358222 -0.265989)
(9.91523 0.042225 -0.20553)
(9.80762 0.0284934 -0.22775)
(9.82459 0.00932405 -0.225619)
(9.7695 0.00272753 -0.237524)
(9.9466 0.0496019 -0.213653)
(10.1202 0.0915267 -0.24994)
(9.92724 0.0491255 -0.192866)
(10.099 0.0819622 -0.21938)
(10.089 0.0736163 -0.207881)
(0.570459 0.830623 0.534097)
(-1.04986 1.13499 -0.534554)
(-0.769857 0.95523 -0.514535)
(1.62749 1.05796 0.797214)
(-1.0557 1.43437 -0.0906508)
(0.478334 0.508452 0.173752)
(-0.179539 0.416354 -0.294093)
(-0.529215 1.11308 -0.471794)
(-0.862393 1.28814 -0.659006)
(-0.154541 0.90454 -0.710965)
(0.160982 0.679844 -0.924087)
(1.4496 0.683482 -0.068881)
(1.80374 1.00677 0.31405)
(0.208405 0.525879 -0.242248)
(-0.158476 0.449427 -0.557376)
(0.439242 1.13208 0.58307)
(-0.60808 0.805956 0.017681)
(12.5445 -0.26277 -0.0164738)
(12.9255 -0.267814 -0.0187026)
(12.9256 -0.270988 -0.0183984)
(12.945 -0.271773 -0.0134011)
(12.3261 -0.260991 -0.0171981)
(12.5791 -0.25866 -0.0175712)
(12.5764 -0.271119 0.00625696)
(12.4373 -0.250438 -0.0160014)
(10.0176 -0.00989358 -0.0195271)
(10.0279 -0.00915186 -0.0163716)
(10.021 -0.0148844 -0.0219777)
(10.0213 -0.0194161 -0.0154256)
(10.0124 -0.0174126 -0.00657755)
(10.024 -0.0172895 -0.0056933)
(9.85561 0.000708127 -0.0203587)
(9.93379 -0.0143949 -0.014896)
(9.94529 -0.0181613 -0.010964)
(9.90244 -0.0188262 -0.00155617)
(9.8713 -0.0258115 -0.0229597)
(10.7574 0.114969 0.0671475)
(10.7939 0.138357 0.187364)
(10.3916 0.0973447 0.112801)
(10.3811 0.0319404 0.0382433)
(10.7722 0.0868137 0.204853)
(10.6455 0.151278 0.116128)
(10.546 0.201531 -0.0211275)
(10.8597 0.106654 0.268245)
(10.8521 0.131362 0.277192)
(10.7487 0.129283 0.27095)
(10.5523 0.153456 0.127412)
(10.4538 0.12612 0.089746)
(10.4986 0.123295 0.141932)
(10.5516 0.166011 0.0562201)
(10.497 0.0933744 0.150578)
(10.5363 0.0578251 0.0824342)
(10.6365 0.117175 0.228969)
(10.731 0.115753 0.246257)
(11.325 0.00562868 0.3796)
(11.3974 0.0787648 0.329949)
(11.3996 0.0552168 0.361016)
(11.3267 0.0331799 0.324038)
(11.3231 0.0189493 0.315936)
(11.3128 0.0791184 0.333521)
(11.244 0.0376665 0.312148)
(11.2505 0.0274686 0.359026)
(11.1995 -0.00793916 0.33094)
(11.9531 0.0346562 0.189716)
(11.9601 0.020548 0.210494)
(11.8511 0.0137721 0.244516)
(11.9642 0.0297627 0.159125)
(11.9974 0.0183718 0.179625)
(11.6947 0.0250412 0.122595)
(11.8682 0.00436107 0.252543)
(11.9018 -0.00603983 0.21619)
(12.8384 0.0431086 0.00984382)
(12.9309 0.0586384 0.0430663)
(12.7005 0.0234266 -0.0535139)
(12.7207 0.092516 0.0243293)
(13.1345 0.0495454 0.142756)
(13.079 0.0923995 0.187002)
(12.8987 0.0568313 0.0846707)
(12.7316 0.0884456 0.0218695)
(12.7007 0.0755853 0.0692976)
(12.6375 0.0744831 -0.000484615)
(13.0561 0.0841746 0.174043)
(12.724 0.0914307 0.0338424)
(12.7404 0.0368946 -0.00443724)
(13.0385 0.0834377 0.215283)
(12.6563 0.0812519 0.0679631)
(11.5389 1.08455 0.90885)
(11.2936 1.24311 0.898567)
(11.2047 1.30731 0.859286)
(11.3952 1.21712 0.81195)
(11.2607 1.11113 0.771726)
(11.7359 0.946971 0.876721)
(11.5746 0.758199 0.569473)
(11.4502 0.883596 0.697012)
(11.5786 1.27422 1.03836)
(11.4606 0.959383 0.674852)
(11.5653 1.07527 0.7128)
(11.8302 1.1463 0.916119)
(11.6569 0.93518 0.618315)
(12.9741 -0.0664064 -0.0693206)
(13.0969 -0.0271248 -0.0850342)
(12.9921 -0.00362595 -0.0368348)
(12.8126 -0.0324215 -0.0115027)
(12.8413 -0.0118307 0.000624577)
(12.7053 -0.0184666 -0.0398731)
(12.9442 -0.0664258 -0.0364672)
(12.8848 -0.0769059 -0.0130872)
(12.7444 -0.0843906 -0.000264963)
(13.0898 -0.0323258 -0.0981348)
(12.831 -0.0350648 -0.0293438)
(12.9752 -0.0589601 -0.0549338)
(12.7291 -0.0309382 -0.0145049)
(12.6851 -0.0239601 0.00138687)
(9.96154 -0.0894431 -0.735064)
(9.39471 -0.257872 -0.900608)
(9.23395 -0.0808552 -0.999196)
(8.54023 -0.136802 -0.810995)
(7.96329 -0.227271 -0.893235)
(8.37636 -0.108603 -0.875166)
(11.6528 0.432389 -0.639142)
(11.4975 0.279254 -0.483787)
(11.5741 0.259006 -0.458474)
(11.6724 0.325574 -0.490951)
(11.784 0.34742 -0.49828)
(11.4211 0.23435 -0.209603)
(11.2754 0.362054 -0.142656)
(11.3216 0.35587 -0.1142)
(11.4543 0.398654 -0.240442)
(11.6958 0.406118 -0.251386)
(11.5372 0.330966 -0.0636927)
(11.8849 -0.00165093 -0.0948548)
(11.9345 -0.0133945 -0.0398105)
(11.9791 -0.0202467 -0.0358031)
(12.1987 -0.0440161 -0.0597644)
(12.1191 0.0014539 -0.11036)
(11.7932 -0.0103837 -0.0578066)
(11.7992 0.0453179 -0.0809514)
(12.1088 0.00302572 -0.124487)
(11.9978 -0.00145062 -0.0781299)
(11.8721 -0.0291779 -0.0240088)
(12.102 0.00479438 -0.121389)
(11.7638 0.0147246 -0.0879027)
(11.7267 0.00612018 -0.0159481)
(11.7431 -0.00128208 -0.0402726)
(11.7673 0.460268 -0.0275991)
(11.8377 0.480108 0.0132548)
(11.6706 0.459932 -0.0220237)
(12.0131 0.435072 0.00153197)
(11.873 0.420569 0.0417894)
(11.7691 0.512944 -0.0302538)
(11.8424 0.514088 -0.00737486)
(11.8024 0.548198 -0.0512195)
(11.7044 0.540298 -0.0253331)
(12.1029 0.500923 -0.0739319)
(12.1396 0.481952 -0.0640162)
(11.8861 0.516735 -0.0169202)
(11.8632 0.512194 -0.0344144)
(11.923 0.512974 -0.00198456)
(12.2278 0.00684623 -0.256907)
(12.0089 0.000415944 -0.279581)
(12.4096 -0.047625 -0.259643)
(12.3599 -0.0329235 -0.207091)
(12.3755 -0.0473048 -0.206137)
(12.4313 -0.0508941 -0.269335)
(12.1488 -0.00579758 -0.209781)
(12.0125 0.0226397 -0.245859)
(12.0128 -0.00178753 -0.261287)
(11.973 -0.00879864 -0.25454)
(12.1362 -0.0212158 -0.275598)
(12.1214 -0.0121827 -0.196512)
(12.1278 -0.00674791 -0.185137)
(11.9858 0.00217517 -0.26673)
(11.938 -0.00728527 -0.252557)
(12.0583 -0.00105129 -0.193391)
(12.0168 0.0175924 -0.24628)
(10.678 -0.0774385 0.015803)
(10.4214 0.0213343 -0.0631673)
(10.5267 0.023265 -0.0526965)
(10.5011 0.0401144 -0.0428791)
(10.7428 -0.129184 0.0406178)
(10.8902 -0.158573 0.0168068)
(10.7905 -0.233592 0.17185)
(11.9632 -0.192708 0.194106)
(12.0282 -0.280003 0.191363)
(11.9746 -0.245011 0.1919)
(10.7535 -0.0872188 0.0436402)
(10.7091 -0.179548 0.0835006)
(12.475 0.31971 -0.230466)
(11.8046 0.211812 0.0019786)
(11.9659 0.160655 -0.353452)
(11.8791 -0.00177683 -0.205956)
(11.87 0.192088 0.00790223)
(12.0559 -0.0293311 -0.243312)
(11.9778 0.00566289 -0.232408)
(11.9947 0.190023 -0.0412661)
(12.1338 0.292451 -0.544278)
(12.0046 0.278748 -0.489364)
(12.4011 0.343428 -0.261867)
(12.0335 0.279731 -0.453608)
(12.3997 0.32774 -0.250688)
(12.3886 0.0550909 0.150723)
(12.3146 0.0166076 0.164139)
(12.518 0.083262 0.182129)
(12.4284 0.00948946 0.20963)
(12.4025 -0.00336641 0.215485)
(12.3236 0.0473682 0.135982)
(12.3328 0.0140631 0.154141)
(12.4042 0.0351396 0.178347)
(12.3798 0.0156737 0.188806)
(12.4139 0.0783856 0.144955)
(12.765 0.166403 0.186315)
(12.6993 0.144618 0.178029)
(12.415 0.0647221 0.146238)
(12.6329 0.137268 0.148152)
(12.6048 0.130783 0.143729)
(9.41887 0.126613 0.0125339)
(9.35801 0.10469 0.0315852)
(9.16596 -0.0018235 -0.0242369)
(9.15894 0.00442526 -0.0244138)
(9.29373 0.10218 -0.0258103)
(9.42331 0.105917 -0.000932057)
(9.44689 0.123357 -0.000827692)
(9.24706 0.0493165 -0.00445379)
(9.32027 0.0524138 0.00272049)
(2.49554 -0.0908488 0.0674731)
(2.42135 -0.0273237 0.0913781)
(2.7363 -0.151123 -0.00599614)
(2.84114 -0.155116 -0.0347117)
(2.696 -0.118368 0.00932199)
(2.53316 -0.0329085 -0.0191629)
(2.68866 -0.0704613 -0.117423)
(2.83585 -0.174909 -0.133813)
(2.60114 -0.0556948 -0.0334226)
(2.85747 -0.149462 -0.146671)
(3.07209 -0.219154 -0.151008)
(2.84283 -0.186487 -0.0568893)
(3.0347 -0.234663 -0.0950514)
(1.78084 -0.0418542 -0.202805)
(-0.140558 -0.00447171 0.0356492)
(-0.156506 -0.180989 -0.435453)
(1.10165 -0.106814 -0.381235)
(1.44769 -0.228452 -0.451751)
(1.14375 -0.242356 -0.286771)
(1.53911 -0.214519 -0.331355)
(-0.958131 -0.0902127 -0.61213)
(-1.07342 0.0925745 -0.385389)
(-0.961036 -0.00158512 -0.200913)
(-0.930914 -0.112734 -0.357869)
(12.714 0.157284 0.154054)
(12.823 0.200154 0.166371)
(12.83 0.214199 0.155452)
(12.5565 0.257683 0.0726617)
(12.4864 0.245348 0.056501)
(12.5364 0.170566 0.0880111)
(12.5558 0.217587 0.0773806)
(12.4841 0.23447 0.0588056)
(12.4098 0.222365 0.0596143)
(12.6911 0.143637 0.144537)
(12.7333 0.167742 0.130521)
(12.2672 0.102114 0.0465458)
(12.2515 0.0958573 0.0742213)
(12.2961 0.157368 0.0176886)
(12.4431 0.173536 0.0856429)
(12.2229 0.0918264 0.0562915)
(12.2104 0.0928252 0.031533)
(-1.61665 -0.19981 -1.06503)
(-1.32815 -0.688271 -0.567071)
(-1.50227 -0.272988 -0.730907)
(-1.18446 -1.25565 -0.285409)
(-2.48093 -0.0518318 -0.354999)
(-2.14483 -0.188175 -0.542351)
(-2.60033 0.174473 -0.558089)
(-0.639884 -1.11819 -0.217052)
(-1.62331 -0.466684 -0.685246)
(-1.66843 -0.803033 -0.165271)
(-1.60246 -0.786089 -0.168906)
(10.7401 0.283806 0.0383803)
(10.8463 0.293664 0.0100601)
(10.6089 0.202432 0.000810699)
(10.215 0.0648057 0.02456)
(10.4324 0.213768 -0.019741)
(9.90018 0.115093 -0.0464995)
(9.88931 0.104227 -0.0545965)
(10.1312 0.0777932 0.0175961)
(10.4897 0.176213 0.0521585)
(9.9925 0.00882127 0.0172454)
(10.4576 0.176743 0.0396107)
(11.7847 0.177225 0.127403)
(11.773 0.173341 0.102391)
(11.7974 0.190028 0.13081)
(11.7836 0.170891 0.0949825)
(11.5858 0.163291 0.0603969)
(11.6513 0.175589 0.0899549)
(11.3951 0.221522 0.0418091)
(11.4774 0.222551 0.0599901)
(11.6325 0.214283 0.086907)
(11.5035 0.209543 0.0620613)
(11.3219 0.208329 0.0012516)
(11.3874 0.214706 0.0111688)
(11.4802 0.155611 0.0463953)
(11.5413 0.172371 0.0573938)
(11.4407 0.179996 0.0499565)
(3.81556 -0.368258 -0.375128)
(2.95804 -0.258299 -0.589226)
(2.54317 -0.191479 -0.79806)
(2.42863 -0.0393787 -0.863305)
(2.04963 -0.0436827 -0.786976)
(12.3389 -0.0408398 0.558732)
(12.4409 -0.0646442 0.555931)
(12.5793 -0.0877397 0.613179)
(12.5134 -0.0778875 0.612396)
(12.8378 -0.13739 0.61115)
(12.8129 -0.146785 0.62488)
(12.63 -0.0902957 0.594154)
(7.92392 2.54848 0.0397022)
(7.47864 2.71554 -0.475724)
(8.85786 2.31893 -0.234225)
(8.71257 2.59487 -0.389972)
(7.96229 3.00749 -0.0310263)
(7.42872 3.04615 -0.567141)
(8.06692 2.28684 0.0603979)
(7.55811 2.39303 -0.56479)
(8.18358 3.0627 -1.21986)
(7.32848 3.11001 -1.28673)
(8.2674 2.17323 -0.040329)
(7.94225 2.18093 -0.632131)
(8.26647 2.73271 -1.132)
(7.73498 2.69157 -0.957456)
(8.93346 2.22958 -0.240278)
(8.43202 2.48552 -1.06786)
(7.87539 2.44301 -0.897574)
(8.94588 2.27971 -0.440684)
(9.61728 2.1065 -0.283386)
(9.7718 1.94625 -0.35982)
(9.57985 1.9956 -0.584146)
(9.50701 2.08855 -0.673806)
(9.52042 1.80533 -0.577616)
(9.44143 2.11601 -0.666797)
(9.56586 1.94314 -0.156726)
(9.49668 2.11657 -0.206454)
(9.41742 2.23469 -0.540707)
(8.99077 2.05724 -0.485899)
(9.30372 1.73549 -0.406564)
(9.28872 1.90819 -0.201155)
(9.00605 2.2489 -0.156201)
(10.1949 3.23515 -0.906154)
(10.5462 2.79808 -0.837317)
(10.9704 2.12627 -0.307217)
(10.885 2.01999 -0.311433)
(10.3402 2.51283 -0.81924)
(10.565 2.50567 -0.736529)
(10.7008 2.23666 -0.458418)
(10.6777 2.16065 -0.466495)
(10.4491 3.23241 -0.75281)
(10.7816 2.96055 -0.613456)
(9.9512 2.86606 -0.843079)
(10.0265 2.96148 -0.825374)
(10.7456 2.65339 -0.237368)
(10.658 2.45285 -0.215681)
(10.9632 2.38541 -0.296004)
(10.4003 2.19657 -0.538367)
(10.0893 2.6589 -0.486412)
(10.1601 2.78832 -0.514912)
(10.4684 2.75141 -0.268954)
(10.4575 2.61098 -0.296613)
(10.389 2.88453 -0.434936)
(10.3077 2.545 -0.365337)
(13.1991 -0.0614246 0.333217)
(12.9772 -0.0727525 0.303387)
(13.0564 -0.116444 0.317277)
(12.9792 -0.0695246 0.314605)
(13.0643 -0.115451 0.325353)
(13.2439 -0.0500852 0.355044)
(13.1028 -0.0450977 0.342211)
(13.2844 -0.0915358 0.324278)
(13.0594 -0.0680259 0.30883)
(13.2062 -0.048514 0.340207)
(13.2051 -0.128992 0.314268)
(13.1009 -0.0567565 0.332217)
(13.2736 -0.110992 0.317918)
(13.1194 -0.0622242 0.323233)
(13.2889 -0.119947 0.313001)
(13.2515 -0.0687211 0.329907)
(4.65541 -0.0542378 -0.33337)
(-1.65133 -0.310589 -0.257868)
(2.55029 1.94409 0.43075)
(2.78771 2.46403 0.385588)
(10.0421 0.987719 -1.69517)
(10.2253 1.10927 -1.99899)
(4.42023 2.18033 -0.49874)
(4.67334 1.86373 -0.289706)
(10.6665 0.633624 -1.52247)
(10.8213 0.639931 -1.70431)
(0.241066 0.396446 0.606816)
(6.11888 0.0859537 -0.75529)
(4.46682 0.61537 -0.0826319)
(5.16449 1.92085 -0.269395)
(10.0092 1.1053 -1.49977)
(10.7795 1.00472 -1.36602)
(12.593 0.113475 0.310255)
(12.6463 0.159434 0.29915)
(12.5317 0.113975 0.246645)
(12.488 0.115415 0.208262)
(12.4533 0.123683 0.219216)
(12.4665 0.114227 0.268782)
(12.5881 0.121801 0.26194)
(12.6536 0.132704 0.299486)
(12.5781 0.162726 0.308355)
(12.5354 0.101651 0.312757)
(12.3953 0.131539 0.209775)
(12.3752 0.0979964 0.159012)
(12.4305 0.119145 0.228443)
(12.461 0.117133 0.270061)
(12.3889 0.0987648 0.151251)
(12.4571 0.105008 0.164414)
(12.5525 0.106649 0.19817)
(12.4988 0.116943 0.212018)
(9.7259 1.76293 -0.0958804)
(9.42122 1.68629 0.652879)
(9.33211 2.05898 0.820434)
(9.70133 1.92798 0.16226)
(9.59574 2.07935 0.0376135)
(9.21272 2.53601 0.285505)
(8.69898 2.72536 0.252958)
(9.35101 1.73216 -0.090567)
(9.53495 2.0859 0.583006)
(9.0045 1.93838 0.624445)
(8.85535 2.20885 0.663975)
(8.79291 2.68628 0.375041)
(9.29515 2.42388 0.53512)
(9.7204 1.79367 0.359646)
(9.66498 1.62246 0.351901)
(9.61573 1.66046 -0.0384822)
(10.57 0.664226 -0.245917)
(10.6445 0.665466 -0.196599)
(10.6029 0.608944 -0.235618)
(10.6059 0.778294 -0.269224)
(10.7171 0.84387 -0.173684)
(10.5464 0.556301 -0.255598)
(10.4806 0.640454 -0.325489)
(10.5187 0.730565 -0.352082)
(10.5795 0.747239 -0.342309)
(10.5164 0.733705 -0.388344)
(10.5715 0.743359 -0.328166)
(10.645 0.748876 -0.36572)
(10.5921 0.738479 -0.41018)
(10.6975 0.767061 -0.312178)
(10.6372 0.736827 -0.305458)
(10.4872 0.603727 -0.292864)
(10.4536 0.633584 -0.351211)
(11.7116 -0.0536529 0.795634)
(11.718 -0.0272016 0.76679)
(11.8343 0.121799 0.661913)
(11.8362 0.155218 0.677109)
(11.8288 0.16251 0.681684)
(11.8281 0.117929 0.658379)
(11.7303 -0.018434 0.862953)
(11.7066 -0.00900108 0.890632)
(11.8305 0.287967 0.809114)
(11.8229 0.379264 0.961914)
(11.6986 -0.0148972 0.720761)
(11.8393 0.121209 0.666437)
(11.8436 0.287292 0.815231)
(11.8439 0.323619 0.898097)
(11.7062 0.00440194 0.6891)
(11.8819 0.285834 0.881289)
(11.7748 0.0017695 0.826325)
(10.2181 -1.57 0.290607)
(10.5566 -1.53282 0.304174)
(10.6962 -1.52491 0.427028)
(10.0912 -1.64036 0.376252)
(10.5969 -1.48959 0.199175)
(9.99256 -1.66884 0.288591)
(10.0439 -1.52575 -0.05111)
(9.7856 -1.64591 -0.064392)
(10.6552 -1.46992 0.250522)
(10.7719 -1.52744 0.344394)
(10.7546 -1.51345 0.443634)
(10.146 -1.72427 0.339171)
(9.58253 -1.74306 -0.134544)
(9.96389 -1.62697 -0.0781711)
(9.89823 -1.81368 -0.152492)
(10.2578 -1.482 0.000245135)
(9.59446 -1.88289 -0.118047)
(9.66546 -1.8961 -0.127643)
(12.2658 -0.589318 0.254126)
(12.4595 -0.505231 0.301605)
(12.4491 -0.459972 0.285587)
(12.4207 -0.405841 0.157675)
(12.2033 -0.485885 0.127696)
(12.4732 -0.360623 0.250287)
(12.2439 -0.582618 0.257243)
(12.3869 -0.488916 0.282864)
(12.3687 -0.464051 0.268121)
(12.4511 -0.343469 0.250098)
(12.349 -0.418459 0.149732)
(12.3002 -0.471101 0.232391)
(12.3743 -0.381187 0.194318)
(12.1778 -0.586202 0.186046)
(11.965 -0.94496 0.43461)
(12.0168 -0.884893 0.457182)
(11.9398 -0.845618 0.758275)
(12.2865 -0.677496 0.781032)
(11.9639 -0.839605 0.786878)
(11.9324 -0.887622 0.768533)
(11.7718 -1.01052 0.542635)
(12.0435 -0.883531 0.434949)
(12.1252 -0.806373 0.485137)
(11.8859 -1.00638 0.697705)
(11.9056 -0.975901 0.684746)
(11.8235 -1.00265 0.570695)
(12.0478 -0.891561 0.474063)
(12.3303 -0.680745 0.571343)
(12.331 -0.691759 0.559172)
(11.8883 -0.967001 0.529028)
(12.3062 -0.729527 0.625103)
(12.018 -0.897013 0.639956)
(10.611 3.35377 -0.757809)
(10.9847 3.27836 -0.662159)
(10.979 3.03093 -0.615859)
(10.4135 3.28366 -0.531865)
(10.7248 3.48453 -0.536576)
(11.3318 2.98624 -0.322282)
(11.1828 2.62292 -0.291291)
(11.0292 3.40944 0.0106377)
(11.241 3.23161 0.0473803)
(10.5802 3.34352 -0.14625)
(11.09 2.55237 -0.236391)
(11.0827 3.57698 -0.167307)
(11.7454 -0.250191 0.991755)
(12.3482 -0.178919 1.03316)
(11.519 -0.432864 0.962167)
(12.3187 -0.163174 1.02698)
(11.6093 -0.197332 1.02729)
(11.9954 -0.369255 0.863236)
(11.5705 -0.333313 0.982953)
(11.6296 -0.378372 0.941491)
(11.8676 -0.405739 0.910773)
(12.5935 -0.135029 0.894181)
(12.7192 -0.136356 0.810217)
(12.5649 -0.157571 0.884634)
(12.3543 -0.278586 0.793304)
(12.4815 -0.282422 0.743444)
(12.698 -0.146571 0.810967)
(12.4665 -0.268126 0.748332)
(12.4881 -0.168449 0.917129)
(12.2856 -0.112888 0.897112)
(12.4079 -0.144086 0.901028)
(12.2745 -0.104084 0.868264)
(11.9303 -0.146681 1.00013)
(11.7956 -0.293489 1.04636)
(11.3764 -0.342839 1.0284)
(11.9098 -0.103788 1.08076)
(11.942 -0.13129 0.975357)
(12.2451 -0.0898967 0.882427)
(12.3462 -0.133597 0.893412)
(12.3064 -0.264582 0.937904)
(11.4477 -0.37892 0.994195)
(12.2127 -0.237109 0.905189)
(12.0663 -0.350072 0.929307)
(12.0761 -0.3368 0.939181)
(12.4456 0.467497 0.5888)
(12.5114 0.48256 0.610442)
(12.5626 0.413933 0.561548)
(12.3783 0.523831 0.439994)
(12.1811 0.70071 0.561855)
(12.3991 0.288282 0.52827)
(12.3269 0.29893 0.51898)
(12.5861 0.572004 0.552841)
(12.4733 0.646361 0.621374)
(12.4175 0.629651 0.459965)
(12.2668 0.714163 0.559363)
(12.3893 0.587892 0.625932)
(12.3279 0.547631 0.597888)
(12.2088 0.510892 0.623276)
(12.2957 0.430148 0.521182)
(12.4736 0.302311 0.531931)
(12.4361 0.359627 0.498535)
(12.3578 0.355323 0.518792)
(12.4783 0.52253 0.500703)
(11.1429 -0.312759 -0.619814)
(11.0979 -0.321223 -0.593379)
(11.4865 -0.316962 -0.511017)
(10.7472 -0.351308 -0.626832)
(11.1992 -0.299624 -0.614636)
(10.8226 -0.364467 -0.584266)
(11.1029 -0.381931 -0.621505)
(11.6182 -0.299009 -0.574351)
(11.0721 -0.37404 -0.508528)
(11.84 -0.328378 -0.444256)
(10.8372 -0.393931 -0.585288)
(11.2234 -0.424945 -0.542469)
(11.2847 -0.425201 -0.444679)
(11.2686 -0.445396 -0.475752)
(9.05196 -0.318138 -0.293581)
(9.00275 -0.298544 -0.28871)
(9.70219 -0.338158 -0.175219)
(9.28686 -0.336018 -0.234575)
(9.37829 -0.311551 -0.228449)
(9.46657 -0.331898 -0.2502)
(10.1683 -0.280802 -0.132807)
(9.90852 -0.358769 -0.318817)
(9.71621 -0.356777 -0.336579)
(10.619 -0.318659 -0.178276)
(10.4585 -0.285087 -0.17532)
(9.26288 -0.400226 -0.36867)
(10.3448 -0.312955 -0.18206)
(10.1297 -0.325032 -0.266183)
(10.1097 -0.332029 -0.261939)
(10.6039 -0.312702 -0.174532)
(10.5073 -0.285359 -0.176315)
(10.1915 -0.281202 -0.231893)
(11.7855 1.25228 -0.121586)
(11.4114 1.3543 -0.537803)
(11.1044 1.48484 -0.795684)
(12.4184 0.58419 -0.20629)
(12.33 0.804554 -0.178992)
(11.8059 1.07246 -0.446782)
(11.9984 0.997608 -0.134203)
(12.5346 0.538699 -0.198359)
(12.3668 0.810827 -0.149141)
(11.4346 1.0549 -0.754046)
(11.9489 0.788132 -0.557227)
(4.58535 -1.13469 -1.06485)
(4.75062 -1.18322 -0.994525)
(4.61327 -0.962544 -0.9879)
(4.43859 -0.890169 -1.11454)
(3.51771 -0.334546 -1.31066)
(3.0085 0.0106574 -0.968897)
(3.02042 0.036969 -1.31355)
(2.75222 0.123954 -1.06559)
(5.20179 -1.25102 -1.13745)
(5.58551 -1.31208 -1.07593)
(4.66262 -1.03156 -0.918418)
(4.14043 -0.536032 -1.00089)
(4.08131 -0.409194 -1.06924)
(3.65776 -0.388056 -0.939258)
(3.61789 -0.202372 -1.04136)
(3.623 -0.282471 -0.979106)
(3.08384 -0.00968372 -1.17001)
(5.457 -1.21822 -1.01761)
(5.2457 -1.0378 -1.11292)
(5.55547 -1.2304 -1.01586)
(4.92765 -0.991214 -1.26983)
(13.4284 -0.158305 0.431321)
(13.4346 -0.164548 0.398796)
(13.4257 -0.0932662 0.456795)
(13.4526 -0.126083 0.416026)
(13.4282 -0.10511 0.463665)
(13.4192 -0.165503 0.415509)
(13.4206 -0.162859 0.43343)
(13.4066 -0.0877061 0.418985)
(13.3756 -0.0738283 0.450446)
(13.3021 -0.0853725 0.473689)
(13.3098 -0.104891 0.438589)
(13.2576 -0.0852273 0.471518)
(13.4081 -0.09651 0.409807)
(13.3012 -0.0774235 0.472894)
(13.2186 -0.0709009 0.448192)
(13.3187 -0.0864331 0.419117)
(13.2224 -0.0589826 0.451794)
(12.1907 0.0764725 0.929766)
(12.0526 0.0579774 0.941044)
(11.7627 0.027461 1.00193)
(11.1453 0.041233 0.967105)
(12.1501 0.0818464 0.952385)
(12.037 0.0633335 0.986234)
(11.2199 0.311882 0.643904)
(11.2108 0.179022 0.792607)
(11.8669 0.0368937 1.0025)
(11.1313 0.0852226 0.929984)
(11.3195 0.184258 0.947106)
(8.11428 -0.149904 0.291498)
(8.19056 -0.0340649 0.164656)
(7.96592 -0.00170989 0.198121)
(6.34453 -0.194085 -0.0201719)
(7.41427 -0.164394 0.258254)
(5.43686 -0.164929 -0.0540228)
(4.8628 -0.177898 -0.106319)
(5.90505 -0.171551 0.235615)
(7.34947 0.00911419 0.334813)
(7.62559 -0.0537934 0.217254)
(5.52444 -0.0762006 0.0652454)
(6.07147 -0.0645798 0.0699712)
(5.84261 -0.0241255 0.220067)
(12.3948 -0.316818 -0.254233)
(12.3572 -0.293661 -0.244742)
(12.4724 -0.316691 -0.154511)
(12.4966 -0.320398 -0.159934)
(12.302 -0.369611 -0.2333)
(12.3139 -0.355123 -0.219461)
(12.2695 -0.340517 -0.297823)
(12.2486 -0.33593 -0.299591)
(12.4417 -0.288729 -0.170654)
(12.5121 -0.309197 -0.184914)
(12.3057 -0.2907 -0.254014)
(12.3246 -0.279483 -0.242817)
(12.5469 -0.313374 -0.150693)
(12.2698 -0.34861 -0.258608)
(12.5009 -0.298074 -0.133111)
(12.4691 -0.29185 -0.148364)
(12.3127 -0.290099 -0.230328)
(12.3517 -0.2851 -0.208493)
(12.4589 -0.290307 -0.143537)
(12.4623 -0.296117 -0.140652)
(12.42 -0.298574 -0.175745)
(12.3397 -0.314126 -0.215225)
(11.9579 -0.46212 -0.453487)
(12.4773 -0.402635 -0.387122)
(11.7119 -0.36316 -0.534408)
(12.5204 -0.307734 -0.42389)
(12.5556 -0.409558 -0.383091)
(11.4928 -0.461657 -0.414788)
(11.6489 -0.314984 -0.543024)
(12.5378 -0.298707 -0.419721)
(12.0899 -0.317414 -0.506026)
(11.4696 -0.460906 -0.392253)
(12.0328 -0.410242 -0.339456)
(12.0823 -0.432792 -0.382263)
(11.2825 -0.374793 -0.576207)
(12.4927 -0.308902 -0.428189)
(12.0754 -0.3073 -0.509129)
(11.1478 -0.393984 -0.613194)
(11.6721 -0.33705 -0.612007)
(12.2614 -0.378437 -0.426475)
(12.5394 -0.387112 -0.391603)
(12.5088 -0.374782 -0.411719)
(12.825 0.466547 0.342255)
(12.62 0.512202 0.375828)
(12.4754 0.503614 0.490815)
(12.5357 0.463558 0.563973)
(12.7893 0.452711 0.320333)
(12.6468 0.48684 0.364147)
(12.4795 0.45517 0.563496)
(12.3921 0.487893 0.508253)
(12.8471 0.417382 0.444592)
(12.8076 0.373722 0.500065)
(12.8569 0.38423 0.460885)
(12.7844 0.43125 0.3489)
(12.7462 0.422377 0.34397)
(12.6243 0.479615 0.370906)
(12.8755 0.384379 0.471752)
(12.8279 0.373701 0.52851)
(12.7646 0.366541 0.446206)
(12.5913 0.461477 0.366101)
(12.373 0.458462 0.50761)
(12.444 0.448316 0.58518)
(12.4484 0.430656 0.487121)
(12.3827 0.443796 0.550243)
(11.2778 -0.0271685 0.865036)
(11.3412 0.0599457 0.880037)
(12.4361 0.078001 0.828638)
(12.3545 0.095482 0.823482)
(12.2427 0.0480366 0.879801)
(12.1043 0.0896384 0.897105)
(12.2781 0.0519738 0.843802)
(12.2281 0.0295932 0.872587)
(12.0189 -0.000674704 0.854259)
(11.3894 -0.0232835 0.84603)
(11.2784 -0.0938351 0.836897)
(11.3984 -0.0524109 0.832364)
(12.1624 0.130169 0.834599)
(12.2698 0.133862 0.796526)
(12.3694 0.100577 0.803555)
(11.5211 -0.00318882 0.843009)
(11.7678 0.0794788 0.794302)
(12.6038 0.481349 0.909529)
(12.6098 0.550728 0.877762)
(12.8853 0.308557 0.836325)
(12.8469 0.405821 0.804249)
(12.9071 0.348773 0.816139)
(13.0222 0.31042 0.799149)
(13.0701 0.298818 0.776055)
(12.9464 0.496154 0.73536)
(12.9107 0.492377 0.752735)
(12.8454 0.571229 0.736075)
(12.9148 0.549831 0.725551)
(13.0531 0.354818 0.76217)
(12.8866 0.575836 0.72394)
(12.8166 0.574602 0.725604)
(10.9379 0.826612 -0.390409)
(10.8914 0.755333 -0.241575)
(10.8362 0.7053 -0.239952)
(10.8707 0.767252 -0.42347)
(10.8042 0.759655 -0.428593)
(10.9361 0.615227 -0.287497)
(10.8774 0.55322 -0.259498)
(10.9697 0.679167 -0.300564)
(10.9216 0.616456 -0.305754)
(10.8502 0.565128 -0.276276)
(13.2098 -0.202106 0.562031)
(13.2026 -0.222969 0.553172)
(13.1389 -0.161714 0.603666)
(13.1362 -0.16138 0.567852)
(13.1837 -0.267071 0.575903)
(13.1664 -0.279945 0.590094)
(13.17 -0.178305 0.579354)
(13.1488 -0.141057 0.597397)
(13.169 -0.262879 0.586773)
(13.1376 -0.141862 0.620013)
(13.1511 -0.176357 0.645906)
(13.1474 -0.152045 0.656024)
(13.1434 -0.124254 0.629513)
(13.1402 -0.229968 0.633543)
(13.1583 -0.12339 0.633722)
(13.1534 -0.147095 0.655105)
(13.1344 -0.228509 0.633726)
(8.43789 0.0468006 0.146651)
(8.35514 0.0281635 0.188924)
(8.2046 0.0896105 0.225711)
(7.61292 -0.121571 0.0304333)
(7.59178 -0.0766419 -0.0400466)
(8.09729 0.100402 0.129194)
(8.32439 -0.348067 -0.346864)
(8.34953 -0.289889 -0.317436)
(8.16337 -0.252935 -0.263841)
(7.98772 -0.254416 -0.233662)
(8.2808 0.111617 0.252114)
(8.35342 0.0873845 0.179976)
(8.43592 -0.0897216 0.0819172)
(8.44795 -0.00833572 0.0913368)
(7.9561 -0.216253 -0.220722)
(7.94967 -0.141441 -0.189665)
(7.63857 -0.0599975 -0.0742382)
(8.23625 0.0870313 0.113988)
(8.39807 -0.110055 0.0492513)
(8.24227 -0.0173048 0.0127185)
(11.8293 -0.012707 0.541217)
(11.6837 -0.0760017 0.532209)
(11.6778 -0.0148248 0.513705)
(11.7918 0.0113445 0.534673)
(11.6668 -0.119422 0.551363)
(11.3845 -0.0935844 0.540476)
(11.5993 -0.185737 0.528546)
(11.844 -0.0291226 0.487197)
(11.8363 -0.0072532 0.518494)
(11.7817 -0.0689644 0.515264)
(11.4119 -0.208067 0.470258)
(11.3552 -0.122448 0.539251)
(11.8068 0.0171153 0.520848)
(11.5645 -0.0894186 0.514719)
(11.5714 -0.126413 0.495578)
(11.3177 -0.176902 0.495873)
(2.98447 -0.101926 0.7961)
(3.04871 -0.320722 0.955533)
(2.1094 -0.271612 1.26571)
(2.02642 -0.00716514 1.24226)
(5.84264 -0.59062 0.640805)
(4.3896 -0.448639 0.698873)
(7.55675 -0.158768 0.783601)
(5.63467 0.203263 0.88588)
(3.28107 0.458124 1.42133)
(4.64211 -0.0390314 1.15918)
(7.50333 -0.17414 0.679657)
(5.76406 -0.123422 0.887025)
(4.80619 0.350369 0.854159)
(12.5462 -0.121561 1.04682)
(12.5027 -0.0342809 1.12033)
(12.6161 -0.150098 1.02015)
(12.7408 -0.156183 0.935162)
(12.8946 -0.150157 0.880785)
(12.7965 -0.134477 0.963059)
(12.4928 -0.0237858 1.13873)
(12.637 0.0938068 1.00445)
(12.7686 -0.046743 0.946769)
(12.7294 -0.132191 0.917064)
(12.9785 -0.0732625 0.855703)
(12.6628 0.149934 0.975613)
(11.7849 0.394896 -0.101481)
(11.7371 0.295152 -0.133785)
(11.7875 0.259908 -0.146455)
(11.8789 0.394588 -0.0797538)
(11.8177 0.337991 -0.0840092)
(11.8562 0.312419 -0.103035)
(12.012 0.376634 -0.101685)
(12.1049 0.386792 -0.118704)
(12.0069 0.286485 -0.121328)
(11.9616 0.273469 -0.120317)
(12.0234 0.607509 -0.202612)
(12.1095 0.602249 -0.202268)
(11.9427 0.553752 -0.230029)
(12.0051 0.546805 -0.212597)
(11.8495 0.54245 -0.236667)
(11.8953 0.463116 -0.157266)
(11.9147 0.367649 -0.0918855)
(11.9571 0.55521 -0.196731)
(11.9828 0.438978 -0.133924)
(11.8316 -0.453995 0.292596)
(11.7856 -0.419618 0.349909)
(12.0431 -0.3437 0.214713)
(12.0255 -0.288721 0.252822)
(12.0637 -0.282637 0.274436)
(12.4513 -0.353823 0.438904)
(12.275 -0.376953 0.421662)
(11.9314 -0.395351 0.306758)
(12.2145 -0.400915 0.263196)
(12.9175 -0.29253 0.581222)
(12.914 -0.304464 0.576345)
(12.0937 -0.396208 0.388058)
(12.8819 -0.344821 0.420155)
(12.672 -0.358779 0.375849)
(12.8472 -0.305726 0.531679)
(13.023 -0.289876 0.561422)
(13.0456 -0.271375 0.531278)
(12.7215 -0.367173 0.449555)
(12.9784 -0.279143 0.493822)
(1.47127 0.469928 -1.36579)
(1.59745 0.401184 -1.54034)
(2.2923 0.159456 -1.43851)
(2.06538 0.179249 -1.37202)
(1.79323 0.237534 -1.42788)
(1.89369 0.231261 -1.45629)
(2.31131 -0.126349 -1.46731)
(2.60122 -0.249327 -1.54608)
(2.87529 -0.320696 -1.52243)
(2.6677 -0.193595 -1.4074)
(3.18199 -0.439077 -1.34708)
(3.30407 -0.557544 -1.45936)
(2.80501 -0.0245075 -1.37428)
(3.24411 -0.44288 -1.54172)
(2.90639 -0.0700934 -1.32996)
(2.35506 0.0699053 -1.45604)
(10.9191 0.507767 -0.315066)
(10.8372 0.475525 -0.24806)
(10.8885 0.48505 -0.328305)
(10.9833 0.544874 -0.392645)
(10.9144 0.53704 -0.665225)
(10.8385 0.528271 -0.6587)
(10.8468 0.481365 -0.304734)
(10.9457 0.554703 -0.532968)
(10.8833 0.56197 -0.653261)
(10.8358 0.52805 -0.662753)
(10.8052 0.402206 -0.375354)
(10.8972 0.464209 -0.485522)
(10.8879 0.550516 -0.485303)
(10.7687 0.413804 -0.377672)