/*--------------------------------*- C++ -*----------------------------------*\
  =========                 |
  \\      /  F ield         | OpenFOAM: The Open Source CFD Toolbox
   \\    /   O peration     | Website:  https://openfoam.org
    \\  /    A nd           | Version:  10
     \\/     M anipulation  |
\*---------------------------------------------------------------------------*/
FoamFile
{
    format      ascii;
    class       volScalarField;
    location    "10";
    object      C;
}
// * * * * * * * * * * * * * * * * * * * * * * * * * * * * * * * * * * * * * //

dimensions      [1 3 0 0 0 0 0];

internalField   nonuniform List<scalar> 
75457
(
0.499121
0.499006
0.49938
0.499619
0.499758
0.49974
0.499392
0.499354
0.499921
0.499919
0.499919
0.499843
0.499852
0.499902
0.494373
0.495318
0.497985
0.496766
0.496008
0.497884
0.496975
0.497308
0.495584
0.495604
0.497433
0.493238
0.492679
0.480031
0.474052
0.478953
0.480979
0.471225
0.471102
0.48754
0.486787
0.488614
0.487969
0.470251
0.472615
0.487233
0.488476
0.486956
0.488069
0.497296
0.496022
0.498432
0.49842
0.497489
0.499944
0.499634
0.499617
0.499938
0.499931
0.499664
0.499777
0.499837
0.499868
0.499872
0.499957
0.499941
0.499918
0.499956
0.5
0.5
0.5
0.5
0.5
0.5
0.5
0.5
0.5
0.5
0.5
0.5
0.5
0.5
0.5
0.141948
0.0431456
0.0241853
0.145237
0.0564658
0.129498
0.020992
0.0146535
0.0138402
0.0296137
0.0333714
0.136857
0.173632
0.0124704
0.011947
0.139242
0.0196564
0.5
0.5
0.5
0.5
0.5
0.5
0.5
0.5
0.5
0.5
0.5
0.5
0.5
0.5
0.5
0.5
0.5
0.5
0.5
0.5
0.5
0.5
0.5
0.5
0.5
0.5
0.5
0.5
0.5
0.5
0.5
0.5
0.5
0.5
0.5
0.5
0.5
0.5
0.5
0.5
0.5
0.5
0.5
0.5
0.5
0.5
0.5
0.5
0.5
0.5
0.5
0.5
0.5
0.5
0.5
0.5
0.5
0.5
0.5
0.5
0.5
0.5
0.5
0.5
0.5
0.5
0.5
0.5
0.5
0.5
0.5
0.5
0.5
0.5
0.5
0.5
0.5
0.5
0.5
0.5
0.5
0.5
0.5
0.5
0.5
0.5
0.5
0.5
0.5
0.5
0.5
0.5
0.5
0.5
0.5
0.5
0.494037
0.492913
0.492375
0.488667
0.486481
0.487781
0.5
0.5
0.5
0.5
0.5
0.5
0.5
0.5
0.5
0.5
0.5
0.499967
0.499981
0.499982
0.499965
0.499924
0.49998
0.499965
0.499926
0.499946
0.499981
0.499916
0.499959
0.49998
0.499966
0.5
0.5
0.5
0.5
0.5
0.5
0.5
0.5
0.5
0.5
0.5
0.5
0.5
0.5
0.499091
0.498682
0.499095
0.499446
0.499464
0.499011
0.499505
0.499038
0.498605
0.499185
0.498817
0.499537
0.499664
0.498648
0.498969
0.499584
0.499007
0.491018
0.491425
0.49123
0.491447
0.493497
0.493919
0.494246
0.496155
0.496113
0.49611
0.490873
0.494092
0.499663
0.499729
0.499241
0.49965
0.49973
0.499654
0.499652
0.49973
0.498997
0.49891
0.499662
0.499
0.499662
0.5
0.5
0.5
0.5
0.5
0.5
0.5
0.5
0.5
0.5
0.5
0.5
0.5
0.5
0.5
0.426182
0.430572
0.411336
0.417452
0.421584
0.436312
0.431713
0.425459
0.431507
0.00675666
0.00692822
0.0131731
0.011846
0.0124993
0.0118376
0.0165022
0.020285
0.0104543
0.0177062
0.0237657
0.0122518
0.015908
0.071804
0.0465959
0.00828209
0.0420736
0.0524158
0.0472868
0.0453298
0.00111942
0.000498253
0.00094998
0.00230927
0.5
0.5
0.5
0.5
0.5
0.5
0.5
0.5
0.5
0.5
0.5
0.5
0.5
0.5
0.5
0.5
0.5
0.213831
0.237857
0.216021
0.287525
0.184259
0.176878
0.192608
0.224528
0.198652
0.261029
0.221157
0.49088
0.494494
0.495108
0.490474
0.494207
0.477712
0.476909
0.489974
0.494794
0.489365
0.494576
0.489546
0.492355
0.489524
0.493104
0.491124
0.488891
0.489968
0.488776
0.489944
0.492187
0.489227
0.488063
0.491814
0.493068
0.491522
0.158247
0.125935
0.124333
0.177342
0.0879771
0.499929
0.499934
0.499792
0.499902
0.499537
0.499541
0.499888
0.5
0.5
0.5
0.5
0.5
0.5
0.5
0.5
0.5
0.5
0.5
0.5
0.5
0.5
0.5
0.5
0.5
0.5
0.5
0.5
0.5
0.5
0.5
0.5
0.5
0.5
0.5
0.5
0.5
0.5
0.5
0.5
0.5
0.5
0.5
0.5
0.5
0.5
0.5
0.5
0.5
0.5
0.5
0.5
0.5
0.5
0.5
0.5
0.5
0.5
0.5
0.5
0.5
0.499979
0.499723
0.499767
0.499726
0.499774
0.49998
0.499832
0.499933
0.499775
0.499977
0.499859
0.499819
0.499922
0.499824
0.499924
0.499975
0.499878
0.499425
0.499085
0.499038
0.499813
0.49977
0.498994
0.499073
0.499973
0.499973
0.499263
0.499888
0.499886
0.499204
0.49982
0.499973
0.5
0.5
0.5
0.5
0.5
0.5
0.5
0.5
0.5
0.5
0.5
0.5
0.5
0.5
0.5
0.5
0.5
0.5
0.5
0.5
0.5
0.5
0.5
0.5
0.5
0.5
0.5
0.5
0.5
0.5
0.5
0.5
0.5
0.5
0.5
0.5
0.5
0.5
0.5
0.5
0.5
0.5
0.5
0.5
0.5
0.5
0.5
0.5
0.5
0.5
0.5
0.5
0.5
0.5
0.5
0.5
0.5
0.5
0.5
0.5
0.5
0.5
0.5
0.5
0.5
0.5
0.5
0.5
0.46871
0.471349
0.472489
0.467236
0.469113
0.466649
0.460609
0.458988
0.469464
0.471507
0.472759
0.467329
0.453484
0.459209
0.458299
0.462909
0.456067
0.456744
0.495713
0.497449
0.497658
0.498331
0.496615
0.498624
0.495672
0.497277
0.497372
0.498585
0.497943
0.497074
0.498219
0.4955
0.487834
0.488773
0.485608
0.489549
0.485407
0.485236
0.483924
0.488679
0.489552
0.48425
0.484314
0.484017
0.488311
0.491385
0.491394
0.484821
0.490142
0.485562
0.5
0.5
0.5
0.5
0.5
0.5
0.5
0.5
0.5
0.5
0.5
0.5
0.480604
0.489114
0.478883
0.488419
0.479446
0.484443
0.480301
0.480704
0.483044
0.49181
0.493402
0.492444
0.490501
0.490955
0.493344
0.491105
0.495895
0.493778
0.495294
0.494017
0.490094
0.488534
0.483997
0.490228
0.490546
0.493918
0.494825
0.49384
0.484162
0.493458
0.491947
0.491837
0.5
0.5
0.5
0.5
0.5
0.5
0.5
0.5
0.5
0.5
0.5
0.5
0.5
0.5
0.5
0.5
0.5
0.5
0.5
0.479067
0.477556
0.482489
0.470852
0.47977
0.471382
0.47923
0.487996
0.4746
0.490136
0.472892
0.481779
0.480628
0.482
0.364412
0.35439
0.402621
0.387438
0.374767
0.402005
0.429902
0.404542
0.395451
0.44793
0.437167
0.385095
0.441022
0.422476
0.427825
0.443549
0.437083
0.433554
0.499777
0.499599
0.499555
0.499925
0.499909
0.499655
0.499808
0.499921
0.499906
0.499603
0.499701
0.293468
0.300846
0.287986
0.280069
0.166621
0.115896
0.137831
0.0961988
0.314898
0.33099
0.273704
0.206823
0.19698
0.178496
0.166049
0.175676
0.106566
0.318113
0.285257
0.312106
0.276716
0.499904
0.499906
0.499991
0.499969
0.499991
0.499911
0.499906
0.499997
0.499999
0.499996
0.499987
0.499998
0.499997
0.499996
0.5
0.499998
0.5
0.492495
0.490892
0.489101
0.484816
0.492509
0.491557
0.483202
0.483336
0.490028
0.485028
0.485811
0.352046
0.34677
0.346147
0.264349
0.329374
0.223678
0.202809
0.282231
0.337155
0.337398
0.277277
0.274804
0.285845
0.497759
0.497705
0.498262
0.498394
0.496172
0.496351
0.495978
0.495707
0.499081
0.498932
0.497328
0.497665
0.499167
0.495853
0.499214
0.49857
0.497623
0.498138
0.498731
0.499099
0.499022
0.497146
0.496455
0.498348
0.494639
0.498506
0.498688
0.493096
0.494056
0.498517
0.496178
0.492311
0.495849
0.496376
0.490213
0.498232
0.496033
0.488146
0.492452
0.497016
0.498631
0.498374
0.499215
0.498074
0.496318
0.496434
0.499239
0.498297
0.496094
0.495572
0.498896
0.498821
0.498962
0.499166
0.499071
0.498245
0.498966
0.498693
0.49885
0.498183
0.495559
0.495961
0.496351
0.495647
0.479917
0.481011
0.494845
0.493919
0.493229
0.491366
0.493465
0.493131
0.48967
0.481037
0.479735
0.482672
0.49168
0.492723
0.494059
0.482989
0.486958
0.495998
0.495984
0.496921
0.497286
0.497492
0.497607
0.498184
0.498002
0.498012
0.497716
0.497793
0.498131
0.497191
0.496881
0.5
0.5
0.5
0.5
0.5
0.5
0.5
0.5
0.5
0.5
0.49952
0.499531
0.499657
0.499707
0.498847
0.498438
0.499656
0.499769
0.498708
0.499583
0.499295
0.499297
0.499639
0.498223
0.49964
0.499271
0.498044
0.485946
0.486591
0.484011
0.475597
0.473708
0.481128
0.482675
0.481864
0.478253
0.476671
0.485253
0.484815
0.486656
0.48572
0.478534
0.474749
0.472492
0.482733
0.484369
0.481353
0.5
0.5
0.5
0.5
0.5
0.5
0.5
0.5
0.5
0.5
0.5
0.5
0.5
0.5
0.5
0.5
0.315248
0.308409
0.292014
0.295396
0.401813
0.355533
0.426299
0.365388
0.325307
0.345224
0.425097
0.361865
0.33146
0.488388
0.487578
0.489571
0.49216
0.493928
0.491962
0.487607
0.491038
0.492922
0.492208
0.495403
0.491498
0.5
0.5
0.5
0.5
0.5
0.5
0.5
0.5
0.5
0.5
0.5
0.5
0.5
0.5
0.5
0.5
0.5
0.5
0.5
0.48638
0.485649
0.491433
0.491412
0.491408
0.491588
0.489958
0.488141
0.491934
0.496062
0.496076
0.488823
0.496396
0.495087
0.495205
0.497176
0.497592
0.495217
0.496889
0.0221634
0.0269563
0.0572162
0.0283649
0.0291851
0.0354894
0.0591093
0.0803025
0.0910328
0.0845522
0.135586
0.139137
0.100452
0.112388
0.114513
0.0492241
0.5
0.5
0.5
0.5
0.5
0.5
0.5
0.5
0.5
0.5
0.5
0.5
0.5
0.5
0.5
0.5
0.447422
0.402566
0.456591
0.408894
0.447835
0.380291
0.486004
0.463163
0.490498
0.490561
0.486114
0.461966
0.406497
0.366962
0.448225
0.4856
0.485142
0.485657
0.462279
0.393543
0.5
0.5
0.5
0.5
0.5
0.5
0.5
0.5
0.5
0.5
0.5
0.5
0.5
0.5
0.5
0.5
0.5
0.5
0.5
0.5
0.5
0.5
0.5
0.499995
0.499988
0.499989
0.5
0.499986
0.499986
0.499982
0.499974
0.499992
0.499981
0.499985
0.499981
0.49999
0.499997
0.499984
0.499993
0.499991
0.499997
0.499992
0.499997
0.499997
0.499997
0.499832
0.499824
0.499756
0.499779
0.499949
0.499958
0.499647
0.499667
0.499825
0.499777
0.499942
0.49972
0.499763
0.49993
0.499843
0.499948
0.499941
0.499932
0.499927
0.499051
0.496105
0.496781
0.499086
0.498776
0.496522
0.496492
0.498082
0.497559
0.497138
0.499186
0.499177
0.498095
0.498348
0.497958
0.498326
0.499816
0.499641
0.499629
0.499498
0.499843
0.499786
0.499486
0.499632
0.499846
0.5
0.5
0.5
0.5
0.5
0.5
0.5
0.5
0.5
0.5
0.5
0.5
0.5
0.5
0.5
0.5
0.5
0.5
0.5
0.5
0.5
0.5
0.5
0.5
0.5
0.5
0.5
0.5
0.5
0.5
0.5
0.5
0.499949
0.499987
0.499986
0.49996
0.499977
0.499963
0.49999
0.49999
0.499989
0.499941
0.499961
0.499972
0.499981
0.49997
0.499981
0.499959
0.499983
0.499945
0.499779
0.499691
0.499757
0.49962
0.499729
0.499866
0.499843
0.499888
0.49984
0.499728
0.499785
0.499808
0.499899
0.499874
0.499822
0.499789
0.49989
0.499847
0.499752
0.498911
0.499247
0.49869
0.498832
0.498743
0.497776
0.497352
0.498805
0.497925
0.497776
0.494571
0.494757
0.495094
0.496346
0.498374
0.496107
0.19107
0.223616
0.199537
0.283404
0.24879
0.25369
0.279779
0.234113
0.129168
0.5
0.499999
0.499999
0.499981
0.499997
0.499999
0.499999
0.499999
0.499981
0.499982
0.499995
0.499981
0.499762
0.49983
0.499581
0.499813
0.499474
0.499838
0.499852
0.499869
0.499498
0.499497
0.499517
0.499883
0.499608
0.499873
0.499846
0.49989
0.5
0.5
0.5
0.5
0.5
0.5
0.5
0.5
0.5
0.5
0.5
0.5
0.5
0.5
0.5
0.5
0.5
0.5
0.5
0.5
0.5
0.5
0.5
0.5
0.5
0.5
0.5
0.5
0.499989
0.499991
0.499989
0.499988
0.499988
0.499979
0.499997
0.499997
0.499975
0.499975
0.499975
0.499997
0.499997
0.499991
0.499994
0.499991
0.499997
0.499997
0.5
0.5
0.5
0.5
0.5
0.5
0.5
0.5
0.5
0.5
0.5
0.5
0.5
0.5
0.5
0.5
0.5
0.5
0.5
0.5
0.5
0.5
0.5
0.5
0.5
0.5
0.5
0.5
0.5
0.5
0.5
0.5
0.5
0.5
0.499026
0.499022
0.498928
0.499047
0.498538
0.498873
0.499026
0.499108
0.49915
0.498738
0.498933
0.499252
0.499406
0.49919
0.499438
0.499377
0.499248
0.499401
0.499511
0.499988
0.499995
0.499994
0.499999
0.498473
0.498266
0.499957
0.49995
0.499993
0.499994
0.499952
0.499976
0.499999
0.498587
0.496938
0.499603
0.499975
0.499965
0.499975
0.499969
0.471224
0.477689
0.458605
0.478732
0.469685
0.468579
0.467283
0.440023
0.478882
0.47813
0.462677
0.476207
0.444834
0.453299
0.44195
0.476953
0.474657
0.477189
0.455958
0.198586
0.205435
0.245893
0.219446
0.195672
0.172066
0.294884
0.30461
0.299611
0.333915
0.31686
0.161931
0.212697
0.307815
0.23478
0.202775
0.5
0.5
0.5
0.5
0.5
0.5
0.5
0.5
0.5
0.5
0.5
0.5
0.5
0.5
0.5
0.5
0.5
0.5
0.5
0.5
0.5
0.5
0.5
0.5
0.5
0.5
0.5
0.5
0.5
0.5
0.5
0.5
0.5
0.5
0.5
0.5
0.5
0.5
0.5
0.5
0.5
0.5
0.5
0.5
0.5
0.5
0.5
0.5
0.5
0.5
0.5
0.5
0.5
0.5
0.5
0.5
0.5
0.499987
0.499986
0.49999
0.499988
0.499989
0.499987
0.499985
0.499991
0.499984
0.499989
0.499986
0.499984
0.5
0.5
0.5
0.5
0.5
0.5
0.5
0.5
0.5
0.5
0.5
0.5
0.5
0.5
0.5
0.5
0.5
0.5
0.5
0.5
0.5
0.5
0.5
0.5
0.5
0.5
0.5
0.5
0.5
0.5
0.5
0.5
0.5
0.5
0.5
0.5
0.5
0.5
0.5
0.5
0.5
0.5
0.5
0.5
0.5
0.5
0.5
0.5
0.5
0.5
0.5
0.5
0.5
0.5
0.5
0.5
0.5
0.5
0.5
0.5
0.5
0.5
0.5
0.5
0.5
0.5
0.5
0.5
0.5
0.5
0.5
0.5
0.5
0.5
0.5
0.5
0.5
0.5
0.5
0.5
0.5
0.5
0.5
0.5
0.5
0.5
0.5
0.5
0.5
0.5
0.5
0.5
0.5
0.5
0.5
0.5
0.5
0.5
0.5
0.5
0.5
0.5
0.5
0.5
0.5
0.5
0.5
0.5
0.5
0.5
0.5
0.5
0.5
0.5
0.5
0.5
0.5
0.5
0.499998
0.499999
0.499999
0.499998
0.499999
0.499985
0.499965
0.499986
0.499855
0.499954
0.499955
0.499887
0.499857
0.499978
0.252134
0.247282
0.252906
0.266581
0.5
0.5
0.5
0.5
0.5
0.5
0.5
0.5
0.5
0.5
0.5
0.5
0.5
0.5
0.5
0.5
0.5
0.5
0.5
0.5
0.5
0.5
0.402829
0.427008
0.401222
0.376541
0.405251
0.433163
0.426683
0.415569
0.399469
0.380912
0.345181
0.397117
0.333046
0.288738
0.359654
0.372776
0.499968
0.499978
0.499957
0.499957
0.499968
0.499966
0.499966
0.49997
0.499974
0.499977
0.499968
0.499946
0.499943
0.499926
0.499957
0.499955
0.499969
0.499975
0.499966
0.49996
0.499943
0.499956
0.499997
0.499998
0.499998
0.499998
0.499997
0.499998
0.499998
0.499999
0.499996
0.499997
0.499997
0.499999
0.499996
0.499998
0.499997
0.499994
0.499994
0.499993
0.499998
0.409859
0.408952
0.409466
0.436228
0.408982
0.408358
0.437537
0.411492
0.416404
0.435781
0.411392
0.39135
0.389319
0.390258
0.389149
0.407795
0.432676
0.433056
0.425019
0.42708
0.432789
0.409146
0.5
0.5
0.5
0.5
0.5
0.5
0.5
0.5
0.5
0.5
0.5
0.5
0.5
0.5
0.5
0.5
0.5
0.5
0.5
0.5
0.5
0.5
0.5
0.5
0.5
0.5
0.5
0.5
0.5
0.5
0.5
0.5
0.5
0.5
0.5
0.5
0.5
0.5
0.5
0.5
0.5
0.5
0.5
0.5
0.5
0.5
0.5
0.5
0.5
0.5
0.407454
0.394893
0.412043
0.398404
0.412577
0.446067
0.420207
0.449201
0.437556
0.458283
0.477363
0.472553
0.432458
0.459427
0.477247
0.450629
0.449155
0.461367
0.456135
0.474567
0.474956
0.477243
0.477047
0.4576
0.45494
0.472768
0.471194
0.473553
0.484958
0.473564
0.47755
0.471373
0.481963
0.47541
0.482149
0.479053
0.483038
0.481978
0.480855
0.47007
0.468586
0.47508
0.470125
0.470284
0.479363
0.481608
0.472394
0.476639
0.488107
0.487309
0.486856
0.484313
0.487881
0.491231
0.489843
0.486187
0.490611
0.350061
0.389036
0.414387
0.404625
0.420933
0.407303
0.346768
0.375059
0.391384
0.376955
0.409576
0.412295
0.39271
0.411621
0.329931
0.37882
0.378882
0.5
0.5
0.5
0.5
0.5
0.5
0.5
0.5
0.5
0.5
0.498582
0.499446
0.497912
0.497894
0.499864
0.499533
0.498289
0.498189
0.498222
0.498368
0.49896
0.499602
0.498591
0.499895
0.499766
0.498872
0.499606
0.499639
0.499998
0.499999
0.499998
0.499999
0.499999
0.499999
0.5
0.5
0.5
0.5
0.5
0.5
0.5
0.494897
0.494408
0.495116
0.494666
0.490422
0.49471
0.493964
0.493833
0.4842
0.485008
0.491445
0.490812
0.491192
0.489848
0.499725
0.499926
0.499206
0.499727
0.499951
0.499723
0.499378
0.499723
0.4999
0.499779
0.499898
0.499719
0.499578
0.49988
0.499371
0.0202192
0.0268201
0.0193251
0.0128966
0.0242323
0.0171023
0.0316902
0.0436644
0.011435
0.0151768
0.0238522
0.0351418
0.0379932
0.0274264
0.0215052
0.0526482
0.0413217
0.0247442
0.5
0.5
0.5
0.5
0.5
0.5
0.5
0.5
0.5
0.5
0.5
0.5
0.499999
0.5
0.499997
0.499999
0.499999
0.499999
0.5
0.5
0.5
0.5
0.5
0.499997
0.499998
0.5
0.499999
0.5
0.5
0.499998
0.499999
0.5
0.0863003
0.0519099
0.0495421
0.031925
0.0713086
0.038413
0.0232725
0.0549708
0.0375756
0.0274305
0.0298053
0.0185603
0.0133774
0.0445021
0.0339028
0.0170499
0.00976343
0.056112
0.5
0.5
0.5
0.5
0.5
0.5
0.5
0.5
0.5
0.5
0.5
0.5
0.5
0.5
0.5
0.5
0.5
0.5
0.5
0.498842
0.498795
0.499278
0.499162
0.497046
0.496933
0.496453
0.495528
0.495913
0.496085
0.498003
0.498288
0.498823
0.498371
0.495957
0.495673
0.496431
0.497544
0.5
0.5
0.5
0.5
0.5
0.5
0.5
0.5
0.5
0.5
0.5
0.5
0.5
0.5
0.5
0.5
0.5
0.5
0.5
0.5
0.5
0.5
0.5
0.5
0.5
0.5
0.5
0.5
0.5
0.5
0.5
0.5
0.5
0.5
0.5
0.5
0.5
0.5
0.5
0.5
0.5
0.5
0.5
0.5
0.5
0.5
0.5
0.5
0.5
0.5
0.5
0.5
0.5
0.5
0.5
0.5
0.5
0.5
0.5
0.5
0.5
0.5
0.5
0.5
0.5
0.5
0.5
0.5
0.5
0.5
0.5
0.5
0.5
0.5
0.5
0.5
0.5
0.5
0.5
0.5
0.499323
0.499349
0.499361
0.499767
0.499717
0.499567
0.499405
0.499561
0.499453
0.499646
0.499806
0.499326
0.499651
0.499728
0.499571
0.499162
0.499165
0.498885
0.499346
0.498939
0.499213
0.499176
0.498843
0.499036
0.498802
0.499283
0.498619
0.498867
0.499751
0.499837
0.499822
0.499568
0.499244
0.5
0.5
0.5
0.5
0.5
0.5
0.5
0.5
0.5
0.5
0.5
0.5
0.5
0.5
0.5
0.484058
0.486588
0.488005
0.488035
0.482651
0.487994
0.481316
0.477449
0.479691
0.5
0.5
0.5
0.5
0.5
0.5
0.5
0.5
0.5
0.5
0.5
0.5
0.5
0.5
0.5
0.5
0.5
0.5
0.5
0.5
0.5
0.5
0.5
0.5
0.5
0.5
0.5
0.5
0.5
0.5
0.5
0.5
0.5
0.5
0.5
0.5
0.5
0.5
0.5
0.5
0.5
0.5
0.5
0.5
0.5
0.5
0.5
0.5
0.5
0.5
0.5
0.5
0.5
0.5
0.5
0.5
0.5
0.5
0.5
0.5
0.5
0.5
0.5
0.5
0.5
0.5
0.5
0.5
0.49786
0.497676
0.497391
0.497603
0.499208
0.498951
0.499209
0.499216
0.497425
0.499656
0.499184
0.498313
0.498804
0.49979
0.49989
0.499379
0.499711
0.499458
0.499718
0.499892
0.49988
0.499857
0.499899
0.499373
0.499904
0.499677
0.499994
0.499994
0.499993
0.499993
0.499997
0.499997
0.499998
0.49998
0.499986
0.499982
0.499987
0.499984
0.499983
0.49999
0.49999
0.499994
0.499992
0.499985
0.5
0.5
0.5
0.5
0.5
0.5
0.5
0.5
0.5
0.5
0.5
0.5
0.5
0.5
0.5
0.5
0.5
0.5
0.5
0.5
0.5
0.5
0.5
0.5
0.5
0.5
0.484331
0.488331
0.486174
0.484721
0.485953
0.486312
0.484713
0.484451
0.484108
0.483046
0.483628
0.485018
0.482996
0.497573
0.499297
0.499428
0.499065
0.498915
0.497549
0.497528
0.497737
0.499397
0.499137
0.498821
0.49871
0.499171
0.499024
0.498867
0.499663
0.499859
0.499845
0.499396
0.499629
0.499862
0.499871
0.499884
0.49989
0.499899
0.499838
0.499847
0.499269
0.499684
0.499818
0.499607
0.499766
0.499901
0.499633
0.499831
0.499792
0.499935
0.499743
0.499441
0.49978
0.499921
0.499847
0.499767
0.499788
0.499461
0.332054
0.329189
0.382389
0.410474
0.367611
0.393324
0.35974
0.361825
0.392451
0.390387
0.356778
0.5
0.5
0.5
0.5
0.5
0.5
0.5
0.5
0.5
0.5
0.5
0.5
0.5
0.5
0.5
0.5
0.5
0.5
0.5
0.5
0.5
0.5
0.5
0.5
0.5
0.5
0.5
0.5
0.5
0.5
0.5
0.5
0.5
0.5
0.5
0.5
0.5
0.5
0.5
0.5
0.5
0.5
0.5
0.5
0.5
0.5
0.5
0.5
0.5
0.5
0.5
0.5
0.5
0.5
0.5
0.5
0.5
0.5
0.5
0.5
0.5
0.5
0.5
0.5
0.5
0.5
0.5
0.5
0.5
0.5
0.5
0.5
0.5
0.5
0.5
0.5
0.5
0.5
0.5
0.5
0.5
0.5
0.5
0.5
0.5
0.5
0.5
0.5
0.5
0.499999
0.499999
0.5
0.5
0.5
0.5
0.499999
0.5
0.5
0.5
0.49957
0.499593
0.499542
0.499546
0.499842
0.49974
0.499823
0.499634
0.499969
0.499966
0.499892
0.499965
0.499933
0.499887
0.499967
0.499969
0.499843
0.499891
0.490177
0.48305
0.487771
0.487098
0.488516
0.484803
0.494428
0.494692
0.484691
0.494582
0.491525
0.483337
0.492076
0.492027
0.492253
0.493132
0.494648
0.488692
0.487586
0.49477
0.485007
0.492312
0.493916
0.494688
0.48816
0.484643
0.484779
0.499178
0.499033
0.499146
0.499345
0.498681
0.486389
0.479253
0.48604
0.495011
0.476181
0.496708
0.476867
0.383291
0.385553
0.451739
0.380876
0.383886
0.470504
0.418474
0.495784
0.312497
0.33239
0.418035
0.384182
0.318401
0.446344
0.427198
0.306119
0.312004
0.438819
0.452588
0.354121
0.380648
0.444611
0.440485
0.384573
0.365932
0.405286
0.5
0.5
0.5
0.5
0.5
0.5
0.5
0.5
0.5
0.5
0.5
0.5
0.5
0.5
0.5
0.5
0.5
0.5
0.5
0.5
0.499372
0.499264
0.499606
0.499679
0.499671
0.499738
0.49965
0.49954
0.499204
0.499424
0.499673
0.499635
0.499629
0.499649
0.499917
0.499998
0.499907
0.49989
0.499999
0.499995
0.499812
0.499977
0.5
0.499928
0.499899
0.499809
0.5
0.499997
0.5
0.5
0.5
0.5
0.472057
0.452816
0.453836
0.406025
0.389245
0.431273
0.44082
0.487429
0.393327
0.437583
0.479724
0.475777
0.479914
0.47478
0.458921
0.490386
0.415065
0.438687
0.491115
0.477066
0.487344
0.494256
0.5
0.5
0.5
0.5
0.5
0.5
0.5
0.5
0.5
0.5
0.5
0.5
0.5
0.5
0.5
0.5
0.5
0.5
0.5
0.5
0.5
0.5
0.5
0.5
0.5
0.5
0.5
0.5
0.5
0.5
0.5
0.5
0.5
0.5
0.5
0.362794
0.309276
0.357138
0.282537
0.325231
0.29264
0.306945
0.38106
0.499995
0.499993
0.5
0.499999
0.499999
0.499998
0.499998
0.499994
0.5
0.499999
0.499994
0.499998
0.5
0.5
0.5
0.5
0.5
0.5
0.5
0.5
0.5
0.5
0.5
0.5
0.5
0.5
0.5
0.5
0.5
0.5
0.499999
0.499998
0.499994
0.499995
0.499998
0.499999
0.499997
0.49999
0.499994
0.49999
0.499991
0.499993
0.499997
0.499989
0.499992
0.499992
0.499988
0.499987
0.487004
0.489817
0.491129
0.493953
0.489386
0.492291
0.493755
0.493685
0.494486
0.495057
0.487659
0.494905
0.495499
0.495191
0.484399
0.488578
0.492971
0.49425
0.494995
0.495184
0.485358
0.49455
0.5
0.5
0.5
0.5
0.5
0.5
0.5
0.5
0.5
0.5
0.5
0.5
0.5
0.5
0.5
0.5
0.308811
0.325493
0.326885
0.320192
0.303906
0.2963
0.328172
0.340523
0.331676
0.321923
0.348951
0.347788
0.301827
0.325881
0.31598
0.327274
0.281122
0.278824
0.498768
0.488964
0.489614
0.495215
0.496489
0.496133
0.489926
0.49023
0.498708
0.498631
0.49657
0.496201
0.497378
0.498764
0.498793
0.498803
0.5
0.5
0.5
0.5
0.5
0.5
0.5
0.5
0.5
0.5
0.5
0.5
0.5
0.5
0.5
0.5
0.5
0.5
0.5
0.5
0.49998
0.499979
0.499901
0.499928
0.499999
0.499994
0.5
0.499995
0.499963
0.499955
0.5
0.499995
0.499995
0.499995
0.5
0.499999
0.497246
0.497002
0.497285
0.495695
0.499032
0.495542
0.498619
0.495541
0.498605
0.49966
0.498882
0.499541
0.499269
0.499114
0.498816
0.499128
0.499252
0.49838
0.49885
0.499583
0.499202
0.499368
0.498343
0.498763
0.499485
0.499569
0.498585
0.498977
0.499487
0.499958
0.499913
0.499725
0.499821
0.499828
0.499854
0.499868
0.49997
0.499913
0.499967
0.499953
0.499942
0.49988
0.499754
0.499761
0.499931
0.49988
0.499826
0.499954
0.499956
0.499981
0.499985
0.499946
0.49996
0.499967
0.499971
0.499955
0.499999
0.499999
0.499996
0.499999
0.499999
0.499999
0.499998
0.499998
0.499995
0.499984
0.499983
0.5
0.5
0.5
0.5
0.5
0.5
0.5
0.5
0.5
0.5
0.5
0.5
0.5
0.5
0.5
0.5
0.5
0.5
0.5
0.5
0.5
0.5
0.5
0.5
0.5
0.5
0.5
0.5
0.5
0.5
0.5
0.5
0.5
0.5
0.5
0.5
0.5
0.5
0.5
0.5
0.497889
0.497466
0.497464
0.498083
0.498723
0.498898
0.498457
0.498874
0.49747
0.498872
0.499233
0.498985
0.498649
0.49873
0.498977
0.5
0.5
0.5
0.5
0.5
0.5
0.5
0.5
0.5
0.5
0.5
0.5
0.5
0.5
0.5
0.5
0.5
0.362343
0.338525
0.354362
0.34206
0.440582
0.434545
0.404572
0.414306
0.438416
0.445183
0.332562
0.424563
0.42311
0.436496
0.431477
0.406085
0.416702
0.432315
0.431967
0.433356
0.438154
0.421487
0.487397
0.485604
0.473647
0.478651
0.478235
0.470609
0.48924
0.487539
0.485668
0.485441
0.489529
0.484424
0.472194
0.475132
0.474074
0.499997
0.499999
0.499992
0.49999
0.499999
0.499997
0.499998
0.499997
0.499999
0.499989
0.499995
0.49999
0.499999
0.499999
0.499998
0.499999
0.494407
0.493154
0.496864
0.495151
0.494101
0.490182
0.490763
0.490868
0.492884
0.49453
0.495492
0.491009
0.497101
0.496371
0.490271
0.494922
0.494566
0.494811
0.5
0.5
0.5
0.5
0.5
0.5
0.5
0.5
0.5
0.5
0.5
0.5
0.5
0.5
0.5
0.5
0.5
0.5
0.5
0.5
0.5
0.5
0.5
0.5
0.5
0.5
0.5
0.5
0.5
0.5
0.5
0.5
0.5
0.5
0.5
0.5
0.5
0.5
0.5
0.5
0.5
0.5
0.5
0.5
0.5
0.5
0.5
0.494541
0.495582
0.494836
0.495935
0.477046
0.481212
0.484293
0.478133
0.479387
0.493533
0.489991
0.494563
0.495463
0.480964
0.491428
0.492014
0.493401
0.49342
0.48995
0.491283
0.491195
0.485678
0.485615
0.478097
0.478209
0.488971
0.480952
0.48087
0.479139
0.5
0.5
0.5
0.5
0.5
0.5
0.5
0.5
0.5
0.5
0.5
0.5
0.5
0.5
0.5
0.499229
0.499383
0.499719
0.499302
0.5
0.5
0.5
0.5
0.5
0.5
0.5
0.5
0.5
0.5
0.499858
0.5
0.5
0.5
0.5
0.5
0.5
0.5
0.5
0.5
0.5
0.5
0.5
0.5
0.5
0.5
0.5
0.5
0.49913
0.499018
0.498796
0.498851
0.499094
0.499237
0.499148
0.498836
0.498761
0.498938
0.49854
0.498319
0.49921
0.498561
0.498192
0.498656
0.498497
0.498016
0.350231
0.334442
0.351962
0.35331
0.355874
0.341203
0.347352
0.324545
0.330658
0.34922
0.355308
0.357115
0.35228
0.33046
0.324877
0.284931
0.25522
0.266559
0.271259
0.335002
0.499755
0.499746
0.499733
0.499842
0.499829
0.49455
0.494474
0.493656
0.49347
0.496381
0.496436
0.497001
0.497142
0.491516
0.492824
0.493012
0.494706
0.496561
0.495095
0.499734
0.499733
0.49993
0.499934
0.499737
0.499736
0.499925
0.499925
0.499933
0.499839
0.499438
0.5
0.5
0.5
0.5
0.5
0.5
0.5
0.5
0.5
0.5
0.5
0.49738
0.496541
0.49775
0.497941
0.497631
0.497427
0.496633
0.498359
0.4979
0.49748
0.497819
0.497229
0.498903
0.498859
0.498434
0.5
0.5
0.5
0.5
0.5
0.5
0.5
0.5
0.5
0.5
0.5
0.5
0.5
0.5
0.5
0.5
0.5
0.5
0.5
0.5
0.5
0.49961
0.499604
0.499682
0.499669
0.499719
0.49979
0.499999
0.499998
0.499999
0.5
0.499999
0.499999
0.499997
0.499932
0.499999
0.499974
0.499935
0.5
0.5
0.5
0.5
0.5
0.5
0.5
0.5
0.5
0.5
0.5
0.5
0.5
0.5
0.5
0.5
0.5
0.5
0.5
0.5
0.5
0.5
0.5
0.5
0.5
0.5
0.5
0.5
0.5
0.5
0.5
0.5
0.5
0.5
0.499917
0.499962
0.499935
0.499961
0.499839
0.49982
0.499989
0.49982
0.499828
0.499981
0.499982
0.499829
0.499822
0.499981
0.5
0.5
0.5
0.5
0.5
0.5
0.5
0.5
0.5
0.5
0.5
0.430097
0.425187
0.400409
0.451094
0.424168
0.410227
0.41853
0.414598
0.397004
0.425693
0.431843
0.442126
0.442248
0.448589
0.443987
0.499999
0.499999
0.499998
0.499998
0.5
0.5
0.499998
0.5
0.499999
0.499999
0.499999
0.5
0.5
0.5
0.5
0.5
0.5
0.5
0.499755
0.499659
0.499819
0.499814
0.499834
0.499462
0.499252
0.499355
0.49982
0.499817
0.499657
0.499915
0.49987
0.499425
0.499545
0.499283
0.499269
0.499161
0.499888
0.499868
0.499884
0.5
0.5
0.5
0.5
0.5
0.5
0.5
0.5
0.5
0.5
0.5
0.5
0.5
0.5
0.5
0.5
0.5
0.5
0.5
0.5
0.5
0.5
0.5
0.5
0.5
0.5
0.5
0.5
0.5
0.5
0.5
0.5
0.5
0.5
0.5
0.5
0.5
0.5
0.5
0.5
0.286206
0.125057
0.333748
0.321177
0.153406
0.106337
0.216777
0.289736
0.276158
0.292543
0.260713
0.31496
0.0846487
0.0875536
0.166952
0.154251
0.251399
0.378396
0.368652
0.379974
0.389457
0.342254
0.311611
0.342297
0.3115
0.377512
0.343871
0.358805
0.301383
0.353861
0.3175
0.301302
0.5
0.5
0.5
0.5
0.5
0.5
0.5
0.5
0.5
0.5
0.5
0.5
0.5
0.5
0.5
0.5
0.5
0.5
0.5
0.5
0.5
0.5
0.5
0.5
0.5
0.5
0.5
0.5
0.5
0.5
0.5
0.5
0.5
0.5
0.5
0.5
0.5
0.5
0.5
0.5
0.5
0.5
0.5
0.5
0.499874
0.499537
0.499596
0.499613
0.499662
0.499773
0.499914
0.499725
0.499831
0.499759
0.499788
0.499742
0.499749
0.499762
0.499772
0.499488
0.499157
0.499151
0.49883
0.498856
0.499378
0.499387
0.499056
0.499713
0.499179
0.499209
0.499672
0.5
0.5
0.5
0.5
0.5
0.5
0.5
0.5
0.5
0.5
0.5
0.5
0.5
0.5
0.5
0.5
0.5
0.5
0.5
0.5
0.5
0.5
0.5
0.5
0.5
0.5
0.5
0.5
0.5
0.5
0.5
0.499929
0.49994
0.499933
0.499917
0.499903
0.499896
0.499913
0.499925
0.499886
0.499892
0.5
0.5
0.5
0.5
0.5
0.5
0.5
0.5
0.5
0.5
0.5
0.5
0.5
0.5
0.5
0.5
0.5
0.5
0.5
0.5
0.5
0.5
0.5
0.5
0.5
0.5
0.5
0.5
0.5
0.5
0.5
0.5
0.5
0.5
0.5
0.5
0.5
0.5
0.5
0.5
0.5
0.5
0.5
0.5
0.5
0.5
0.5
0.5
0.5
0.5
0.5
0.5
0.5
0.5
0.5
0.5
0.5
0.5
0.5
0.5
0.5
0.5
0.5
0.5
0.5
0.5
0.5
0.5
0.5
0.5
0.5
0.5
0.5
0.5
0.5
0.5
0.5
0.5
0.5
0.5
0.5
0.5
0.5
0.5
0.5
0.5
0.5
0.5
0.5
0.5
0.5
0.5
0.5
0.5
0.5
0.5
0.5
0.5
0.5
0.5
0.5
0.5
0.5
0.5
0.5
0.5
0.5
0.5
0.5
0.5
0.5
0.5
0.5
0.5
0.5
0.5
0.5
0.5
0.5
0.5
0.5
0.499999
0.499999
0.499997
0.499997
0.499998
0.5
0.5
0.5
0.499998
0.499986
0.499984
0.499976
0.499975
0.5
0.49999
0.5
0.499993
0.499986
0.5
0.5
0.5
0.5
0.5
0.5
0.5
0.5
0.5
0.5
0.5
0.5
0.5
0.5
0.5
0.5
0.5
0.5
0.5
0.5
0.5
0.5
0.5
0.5
0.5
0.5
0.5
0.5
0.5
0.5
0.5
0.5
0.5
0.5
0.5
0.5
0.5
0.5
0.5
0.5
0.5
0.5
0.5
0.5
0.5
0.5
0.5
0.5
0.5
0.5
0.5
0.5
0.5
0.5
0.5
0.5
0.5
0.5
0.5
0.5
0.5
0.5
0.5
0.5
0.5
0.5
0.5
0.5
0.5
0.5
0.5
0.5
0.5
0.5
0.5
0.5
0.5
0.5
0.5
0.5
0.5
0.499999
0.5
0.5
0.499999
0.5
0.5
0.5
0.499999
0.5
0.5
0.5
0.5
0.5
0.5
0.5
0.5
0.5
0.5
0.5
0.5
0.5
0.5
0.5
0.5
0.5
0.5
0.5
0.5
0.5
0.5
0.5
0.5
0.5
0.5
0.5
0.5
0.494065
0.494748
0.496835
0.49755
0.496213
0.49897
0.498974
0.497755
0.49925
0.499033
0.498182
0.498138
0.497809
0.496511
0.494417
0.495654
0.498997
0.497085
0.498946
0.498931
0.498999
0.496648
0.497019
0.494889
0.498392
0.498743
0.498528
0.498777
0.498823
0.498449
0.498508
0.49887
0.498812
0.4987
0.498257
0.49849
0.49862
0.5
0.5
0.5
0.5
0.5
0.5
0.5
0.5
0.5
0.5
0.5
0.5
0.5
0.5
0.5
0.5
0.497196
0.497315
0.496682
0.497251
0.497495
0.497727
0.497957
0.496262
0.495877
0.496819
0.497344
0.495624
0.496938
0.496627
0.499992
0.499996
0.499968
0.499978
0.499996
0.499996
0.499992
0.499998
0.499968
0.499978
0.499996
0.499998
0.499998
0.499986
0.499998
0.499998
0.499996
0.499966
0.499978
0.499973
0.499945
0.499939
0.499971
0.499969
0.49993
0.499932
0.499775
0.499853
0.499847
0.49983
0.499938
0.499916
0.499961
0.499959
0.49989
0.499938
0.499956
0.499938
0.49994
0.499941
0.5
0.5
0.5
0.5
0.5
0.5
0.5
0.5
0.5
0.5
0.5
0.5
0.5
0.5
0.5
0.5
0.5
0.5
0.5
0.5
0.5
0.5
0.5
0.5
0.5
0.5
0.5
0.5
0.5
0.5
0.5
0.5
0.5
0.5
0.5
0.5
0.5
0.350735
0.342957
0.354985
0.327057
0.300212
0.329887
0.291243
0.318417
0.313951
0.318753
0.276264
0.30867
0.432391
0.428074
0.473648
0.472149
0.398362
0.379344
0.485288
0.484637
0.485833
0.485855
0.486692
0.474944
0.477893
0.478451
0.122747
0.0871645
0.0122296
0.00696935
0.19069
0.206787
0.304774
0.25287
0.307855
0.216675
0.148004
0.296625
0.219702
0.241743
0.217423
0.243195
0.287932
0.236709
0.00253444
0.0034243
0.0074888
0.00953723
0.00822673
0.000986898
0.0017228
0.00681667
0.00601995
0.000612638
0.00168202
0.000679198
0.00292477
0.00337769
0.00337977
0.00719882
0.00573107
0.00302038
0.5
0.5
0.5
0.5
0.5
0.5
0.5
0.5
0.5
0.5
0.5
0.499999
0.499997
0.5
0.499998
0.499998
0.499993
0.499995
0.499993
0.499994
0.499997
0.499996
0.499999
0.499999
0.499993
0.499994
0.499999
0.499994
0.499993
0.499986
0.499988
0.499994
0.499973
0.499992
0.499994
0.499995
0.499972
0.499987
0.499971
0.499987
0.499994
0.499929
0.499927
0.499986
0.49994
0.499976
0.499987
0.499987
0.499982
0.499977
0.499996
0.499997
0.499991
0.499999
0.499992
0.499991
0.499997
0.499997
0.499998
0.499993
0.499994
0.499976
0.499994
0.499994
0.499978
0.499983
0.499993
0.499997
0.499998
0.499994
0.499997
0.499998
0.499998
0.151326
0.17843
0.190112
0.288399
0.29058
0.088429
0.0694673
0.107362
0.262665
0.133429
0.1812
0.157813
0.438953
0.448006
0.483959
0.483851
0.45214
0.448657
0.43603
0.474933
0.474598
0.45004
0.435954
0.499999
0.5
0.5
0.5
0.499999
0.5
0.499999
0.499999
0.499999
0.499999
0.499999
0.499999
0.5
0.5
0.498324
0.496136
0.496848
0.495668
0.487847
0.490921
0.485147
0.495226
0.498038
0.498813
0.491509
0.486709
0.498823
0.493374
0.488898
0.452626
0.437055
0.439408
0.455648
0.475469
0.482936
0.45159
0.484073
0.488458
0.468542
0.461269
0.46615
0.485746
0.481454
0.471314
0.472473
0.475482
0.483156
0.482521
0.484955
0.49556
0.495021
0.493558
0.494919
0.493592
0.495224
0.496383
0.496972
0.496986
0.493943
0.496737
0.494835
0.495892
0.494567
0.493056
0.495187
0.493912
0.490862
0.482366
0.482722
0.491954
0.485317
0.486304
0.372344
0.372437
0.374411
0.294394
0.298418
0.356796
0.305182
0.31455
0.363278
0.363026
0.354514
0.347801
0.492197
0.492627
0.491793
0.491628
0.487547
0.492069
0.487228
0.488483
0.487599
0.489938
0.486092
0.48686
0.486087
0.488209
0.485272
0.485389
0.499987
0.499985
0.499986
0.499981
0.499985
0.499982
0.499983
0.49998
0.499977
0.499978
0.499976
0.499972
0.499956
0.499964
0.499968
0.499972
0.499947
0.499958
0.480382
0.483902
0.481584
0.250965
0.491906
0.494174
0.492727
0.236896
0.314915
0.232189
0.0296636
0.499687
0.468411
0.487937
0.5
0.499962
0.499915
0.499984
0.499995
0.499998
0.5
0.5
0.5
0.49064
0.5
0.478429
0.5
0.496124
0.492586
0.492451
0.466023
0.47373
0.479131
0.471643
0.463029
0.497795
0.0255038
0.0295012
0.200305
0.445034
0.497939
0.016147
0.0628736
0.492678
0.493776
0.0200737
0.0414025
0.421801
0.335514
0.000265395
0.5
0.492623
0.5
0.491905
0.490965
0.00448312
0.5
0.0127237
0.178992
0.499732
0.499995
0.499999
0.499999
0.499999
0.0726156
0.145922
0.5
0.499999
0.155238
0.5
0.499999