/*--------------------------------*- C++ -*----------------------------------*\
  =========                 |
  \\      /  F ield         | OpenFOAM: The Open Source CFD Toolbox
   \\    /   O peration     | Website:  https://openfoam.org
    \\  /    A nd           | Version:  10
     \\/     M anipulation  |
\*---------------------------------------------------------------------------*/
FoamFile
{
    format      ascii;
    class       volScalarField;
    location    "10";
    object      eff_dif;
}
// * * * * * * * * * * * * * * * * * * * * * * * * * * * * * * * * * * * * * //

dimensions      [0 2 -1 0 0 0 0];

internalField   nonuniform List<scalar> 
75457
(
-0.0391376
-0.0356204
-0.0321726
-0.0290856
-0.0245455
-0.0262709
-0.0350318
-0.0350789
-0.0235146
-0.0178778
-0.0216726
-0.023797
-0.0234239
-0.0210695
-0.00475028
-0.00515631
-0.00487482
-0.00510012
-0.00548036
-0.00502369
-0.00457947
-0.00518394
-0.00523594
-0.00554938
-0.00530791
-0.00564682
-0.0053938
-0.00124595
-0.00122284
-0.000758497
-0.000557202
-0.000673575
-0.000729699
-0.0009759
-0.000428911
-0.0013858
-0.00124563
-0.00138796
-0.001604
-0.000633821
-0.000905042
-0.000651165
-0.00105365
-0.010119
-0.0097441
-0.00924945
-0.00937536
-0.00969339
-0.00556419
-0.00602054
-0.00636572
-0.00586238
-0.00595412
-0.00604524
-0.00643919
-0.00650362
-0.00620383
-0.0063942
-0.00583997
-0.00607792
-0.0058619
-0.00582366
0.0296285
0.0298999
0.0296362
0.0299729
0.0302103
0.0302354
0.0298835
0.0299233
0.0301973
0.0299842
0.0297096
0.0299738
0.0299614
0.0296397
0.0298502
-0.0115526
-0.0123185
-0.0103206
-0.0128124
-0.0136912
-0.00805792
-0.00829836
-0.0102124
-0.0109879
-0.010519
-0.0100331
-0.00851911
-0.00978022
-0.00817947
-0.00792106
-0.00950339
-0.00808888
-0.00786073
-0.0080226
-0.00805412
-0.00840657
-0.00799834
-0.00782269
-0.00902165
-0.00824648
0.0303431
0.0302321
0.0304942
0.0305106
0.0303768
0.030227
0.0301468
0.0305983
0.0306006
0.0302139
0.0302243
0.0209799
0.02164
0.0241008
0.0236737
0.0210436
0.0226181
0.0226511
0.0221238
0.0224788
0.0241639
0.0239491
0.0244919
0.0250304
0.0237851
0.0232258
0.0220314
0.0244461
0.0234449
0.0125226
0.012487
0.0119073
0.0127897
0.0123862
0.0139128
0.0135957
0.013488
0.013478
0.00660375
0.00614683
0.00670839
0.00625173
0.00568881
0.00619555
0.00621751
0.00527421
-0.00845488
-0.00849763
-0.00789547
-0.00809413
-0.00848265
-0.00813747
-0.0078446
-0.00735374
-0.00581569
-0.0058684
-0.00740737
-0.00713173
-0.00666762
-0.00736675
-0.0062497
0.0151215
0.0167188
0.0169592
0.0162996
0.0167186
0.0130079
0.014387
0.0159438
0.0149611
0.0159152
0.0132442
0.0119354
0.0125219
-0.0107866
-0.0112622
-0.0111318
-0.0113361
-0.0111111
-0.0112443
-0.0105539
-0.0112319
-0.0110959
-0.0113351
-0.011319
-0.0111384
-0.0110608
-0.0112042
-0.0102032
-0.00891609
-0.0113997
-0.00875589
-0.00916546
-0.0107012
0.0102236
0.011002
0.00962434
0.010434
0.00859374
0.00940838
0.0118414
0.0115399
0.0106248
0.00780154
0.0077659
-0.0086805
-0.00852348
-0.00891463
-0.00886727
-0.00883118
-0.00875874
-0.00858818
-0.00841357
-0.00799549
-0.00887377
-0.00863202
-0.00839901
-0.00875805
-0.00833133
0.0046174
0.00369441
0.00408588
0.00237963
0.00293949
0.00365601
0.0035023
0.00478269
0.00436795
0.00345708
0.00281646
0.00218186
0.00443494
0.00282496
-0.0078926
-0.00796273
-0.007598
-0.00758538
-0.00790839
-0.00782731
-0.00798395
-0.00791762
-0.00809392
-0.00755715
-0.00778625
-0.00731415
-0.00798112
-0.00801409
-0.00776286
-0.00775538
-0.00791057
-0.0102174
-0.0100311
-0.0100673
-0.00998375
-0.0113092
-0.00989266
-0.009735
-0.00909857
-0.00994686
-0.0104235
-0.00942056
-0.0101521
-0.00995986
-0.0100664
-0.00989632
-0.00993232
-0.00991601
-0.0100158
-0.0102734
-0.0100261
-0.00998323
-0.0101764
-0.00991943
-0.00972817
-0.00995504
-0.00592668
-0.005751
-0.00598779
-0.00551927
-0.00555998
-0.00541396
-0.00525724
-0.00518708
-0.00520077
-0.00558038
-0.00590426
-0.00577137
-0.00510546
-0.00549562
-0.00544485
-0.000399445
-0.000145056
-0.000205089
-0.00046789
-0.000166495
-0.000133959
-0.000574599
-0.00078107
-1.53605e-05
2.54586e-05
0.000607847
0.000220975
0.00023252
0.000659011
0.00148327
0.000603155
0.000323424
0.000871369
0.000347287
0.000444834
-1.42627e-05
0.000168744
-0.00609902
-0.00695276
-0.00389224
-0.00440456
-0.00448055
-0.00556883
-0.0064072
-0.00586971
-0.00654621
-0.00590326
-0.00595441
-0.00778293
-0.00789069
-0.00805108
-0.00801566
-0.00794819
-0.00771664
-0.00775961
-0.00811605
-0.00829445
-0.00816928
-0.00838791
-0.00758948
-0.00788944
-0.00794394
-0.00815501
-0.00792452
-0.00801035
-0.0136091
-0.0123778
-0.0119063
-0.0136536
-0.0163731
-0.0159436
-0.0157205
-0.0152211
-0.0150494
-0.0141925
-0.0156974
-0.00343276
-0.00396513
-0.00455163
-0.00443443
-0.0040666
-0.00418899
-0.00360598
-0.00445617
-0.0044687
-0.00398437
-0.00397001
-0.000192688
-6.8271e-05
-0.000259874
-0.000334172
-7.9756e-05
-9.18682e-05
-0.000368009
-0.000119463
-0.000460794
-0.000528861
-0.00056922
-0.000222263
-0.000389666
-0.000864271
-0.000832652
-0.00631951
-0.00448135
-0.00763741
-0.00607204
-0.00641945
-0.00798595
-0.00834526
-0.00794567
-0.0082517
-0.0083305
-0.00796166
-0.00871038
0.0484695
0.0532566
0.0418815
0.0445283
0.0473041
0.0493404
0.0490494
0.051885
0.0444093
0.0488365
0.0471374
0.0481348
0.0441648
0.0486378
0.0429631
0.0444082
0.0463228
0.0413969
0.0332209
0.0327783
0.0335209
0.0342285
0.0351494
0.0361012
0.0334578
0.0340925
0.0365313
0.0399899
0.0367432
0.036974
0.038681
0.024429
0.0216596
0.0191679
0.0208179
0.0253334
0.0220236
0.0205914
0.0220315
0.0216482
0.0197467
0.0270304
0.027011
0.0202029
0.0217512
0.0191755
0.0253512
0.0274735
0.0275647
0.0236012
0.023561
0.0242043
0.0255046
-0.00978776
-0.0102157
-0.0104264
-0.0104374
-0.0105374
-0.00997688
-0.0100388
-0.0101655
-0.0102822
-0.00992251
-0.0103159
-0.00994382
-0.0100718
-0.0100323
-0.0101398
-0.0101062
-0.0287663
-0.031267
-0.0180745
-0.0264263
-0.0161684
-0.0232153
-0.0209742
-0.017727
-0.0163372
-0.0214019
-0.0353207
-0.0307076
-0.021374
-0.0281759
-0.0163858
-0.0188735
0.000799482
0.000642253
0.000807968
0.00164951
0.0020288
0.00262902
0.00045288
0.000119504
0.00177734
0.0017531
0.00263679
0.00229111
0.00201353
0.00193219
0.00177484
0.00112226
0.000385087
0.00120109
0.0323824
0.0365101
0.0350826
0.0316018
0.0329297
0.0357034
0.039203
0.0382996
0.0332455
0.0392161
0.0409212
0.0391502
0.0352809
0.0320547
0.0328572
0.0338402
0.0254881
0.0248428
0.025347
0.0251247
0.0242917
0.0260546
0.0266345
0.0260253
0.0253899
0.0263385
0.0257782
0.0249647
0.0258123
0.0242404
0.0249185
0.0264448
0.0269242
0.0111721
0.011021
0.0107171
0.0110761
0.0110537
0.0111164
0.0112559
0.0113119
0.0113227
0.0111885
0.0108244
0.010883
0.0113776
0.0110547
0.0111678
0.0104514
0.0104761
-0.00593746
-0.00680028
-0.00837011
-0.00746784
-0.0064888
-0.0066498
-0.00621845
-0.00624266
-0.00700339
-0.00662118
-0.00805588
-0.00827212
-0.00726325
-0.00608969
-0.00805673
-0.00704707
-0.00703091
-0.00774566
-0.00483652
-0.00492569
-0.00469085
-0.00469033
-0.00422798
-0.00436529
-0.00455935
-0.0045364
-0.00400883
-0.00419708
-0.00438216
-0.00400107
-0.00387292
-0.0043502
-0.00716557
-0.00665273
-0.00744427
-0.00821921
-0.00831334
-0.00772285
-0.00754498
-0.00740265
-0.00724606
-0.00834097
-0.00829044
-0.0082112
-0.00768296
-0.00706905
-0.00742198
-0.00821759
-0.00827747
-0.00848297
0.0198064
0.0155461
0.0163804
0.0232055
0.0195197
0.0136164
0.0165184
0.0167858
0.0132334
0.0216388
0.0167177
0.0138432
-0.00855761
-0.00831792
-0.0081911
-0.00797744
-0.00825859
-0.00822279
-0.00688915
-0.007254
-0.00840953
-0.00847717
-0.00835575
-0.00751363
-0.00742081
-0.00809077
-0.00828696
-0.00811821
-0.00548595
-0.00604358
-0.00502033
-0.0054873
-0.00680209
-0.00671861
-0.00682662
-0.00563109
-0.00536878
-0.00521275
-0.00519916
-0.00612752
-0.0067985
-0.00561202
-0.00518396
-0.00602898
0.00339932
0.00263553
0.00197042
0.0051841
0.00607786
0.00365691
0.00435702
0.0011151
0.00269927
0.00338719
0.00498363
0.00389913
0.00495697
0.00576872
0.00550441
0.00242398
0.00252689
0.00381591
0.00191071
-0.00346358
-0.0025643
-0.00330902
-0.00495487
-0.0040528
-0.00300396
-0.00469759
-0.00426547
-0.00340865
-0.00371507
-0.00348533
-0.00466472
-0.00352689
-0.00318257
-0.00198077
-0.00165009
-0.00177196
-0.00243733
-0.001972
-0.00231269
-0.00204785
-0.00191452
-0.00249862
-0.00179498
-0.0022245
-0.00216139
-0.00275556
-0.00171664
-0.00180358
-0.00177697
-0.00158561
-0.00224099
-0.00514942
-0.00577213
-0.00486105
-0.00350811
-0.00396499
-0.00764015
-0.00510439
-0.00481188
-0.00479913
-0.00591639
-0.00736416
-0.00935839
-0.00961447
-0.0100416
-0.00952471
-0.0103876
-0.0108254
-0.0102859
-0.0114083
-0.00867353
-0.00864413
-0.0109838
-0.011489
-0.0113603
-0.010582
-0.010211
-0.0113015
-0.0105657
-0.010348
-0.0107957
-0.0106372
-0.0101171
-0.0104933
-0.0105701
-0.0103368
-0.0105218
-0.0102316
-0.0103626
-0.010416
-0.010309
-0.0101317
-0.0101702
-0.0103601
-0.0101623
-0.0102997
-0.0102035
-0.0102991
-0.0102265
-0.0102709
-0.00696501
-0.00745861
-0.00898423
-0.0087498
-0.00782927
-0.00842149
-0.00877155
-0.00841416
-0.00795906
-0.00868309
-0.00779289
-0.00439755
-0.00477629
-0.00319033
-0.00307519
-0.00429174
-0.00295876
-0.00326065
-0.00282495
-0.0040512
-0.00364598
-0.00341585
-0.00304402
-0.0038175
-0.00350156
-0.00329084
-0.00319996
-0.00355682
-0.00347691
-0.00288425
-0.00342198
-0.00320176
-0.0035523
-0.0035321
-0.0031247
-0.00312806
-0.00324696
-0.00286926
-0.00318369
-0.00299574
-0.00279471
-0.00307197
-0.00272122
-0.00299462
-0.00315358
-0.00282004
-0.00642244
-0.00667945
-0.0065007
-0.00649341
-0.00615214
-0.00560152
-0.00646476
-0.0053884
-0.00616084
-0.00498969
-0.00574001
-0.00613545
-0.00623708
-0.00588804
-0.00569922
-0.00701933
-0.00607237
-0.00553501
-0.00529746
-0.00526407
-0.00689401
-0.00700292
-0.00723944
-0.00725146
-0.00657144
-0.00660508
-0.00750419
-0.00723361
-0.00701492
-0.00630338
-0.00651749
-0.00649876
-0.0062484
-0.00660472
-0.00669909
-0.00699137
-0.00611903
-0.0062658
-0.0066942
-0.00700041
-0.00617932
-0.00637467
-0.00715423
-0.00807013
-0.00673595
-0.00733414
-0.00718135
-0.00847803
-0.0066333
-0.00652611
-0.00648802
-0.00726485
-0.0078713
-0.00727076
-0.00772846
-0.00677727
-0.00662058
-0.00738382
-0.00695612
-0.00640855
-0.00599212
-0.007352
-0.00670738
-0.00754512
-0.00850381
-0.00793986
-0.0076026
-0.00712699
-0.00701119
-0.00798138
-0.00816206
-0.0086845
-0.0074378
0.0207809
0.0213478
0.0223091
0.021246
0.0220702
0.0208235
0.0218818
0.0206827
0.0212508
0.0222726
-0.00956667
-0.00941007
-0.00914869
-0.00919485
-0.00968615
-0.00964208
-0.00923919
-0.00938094
-0.00965586
-0.00910036
-0.0094281
-0.00925767
-0.00923045
-0.00962709
-0.00928768
-0.00950609
-0.00960954
-0.0106525
-0.0100738
-0.0110201
-0.0107889
-0.0104625
-0.0111717
-0.00997357
-0.0107623
-0.00990571
-0.00973681
-0.0107381
-0.011003
-0.00976407
-0.0107649
-0.0109788
-0.0104326
-0.0101044
-0.011123
-0.0103561
-0.0103975
0.0105986
0.0110051
0.0117044
0.0111079
0.0107875
0.0119312
0.00848682
0.0100431
0.0102701
0.00995118
0.00925449
0.0113711
0.0108138
0.0113631
0.0104754
0.0100523
-0.0150894
-0.0163616
-0.0154053
-0.0147831
-0.0148436
-0.0129644
-0.0136395
-0.0145698
-0.0149129
-0.0154726
-0.0117283
-0.0129953
-0.0144508
-0.0112712
-0.0122848
-0.0103722
-0.0100738
-0.0101692
-0.0111678
-0.0112071
-0.0119373
-0.0102787
-0.00971387
-0.00950881
-0.0106145
0.0108081
0.00977322
0.00941496
0.00951155
0.00951964
0.00803466
0.00770312
0.00712
0.00719322
0.0077442
0.00785707
0.00694107
0.00867457
0.00779662
0.009509
0.00961807
0.00767081
0.00878786
0.00837716
-0.00915813
-0.00907947
-0.0097313
-0.0090016
-0.0105697
-0.00933148
-0.00886301
-0.00932768
-0.00963389
-0.00911873
-0.00907719
-0.00964371
-0.0100066
-0.01044
-0.00991905
-0.0093307
-0.00916997
-0.0100205
-0.00988315
-0.00820301
-0.00903098
-0.00837895
-0.00848394
-0.00843041
-0.00859116
-0.00825443
-0.00790471
-0.00897933
-0.00896959
-0.00902886
-0.00851919
-0.0088286
-0.00883943
-0.00906597
-0.00909105
0.0200056
0.02058
0.0198776
0.0196783
0.0209237
0.0218299
0.021623
0.0206809
0.0206839
0.0215249
0.0217172
0.020776
0.0216657
0.022215
0.0228983
0.0223246
-0.0130769
-0.0150621
-0.0116383
-0.0117206
-0.0155827
-0.0182316
-0.00864582
-0.00968688
-0.0118065
-0.014194
-0.0114306
-0.0121928
-0.0137346
-0.0179771
-0.0163421
-0.0101202
-0.0144736
-0.0118014
-0.0148081
-0.017174
0.0569029
0.0509372
0.0466264
0.0462937
0.0553804
0.0566706
0.0501733
0.0549835
0.0491656
0.0511652
0.0487454
0.0492111
0.0460169
0.0458824
0.0516041
0.019368
0.0180434
0.0226849
0.024314
0.0221628
0.0191338
0.0245278
0.0210835
0.0235119
0.026784
0.0256888
0.0269329
0.0286984
0.0264804
-0.0156438
-0.0163815
-0.0159316
-0.0166872
-0.014776
-0.015041
-0.0134078
-0.0122619
-0.0146239
-0.014567
-0.0127397
-0.0122687
-0.0150643
-0.0133306
-0.013004
-0.0136322
-0.00595797
-0.00566991
-0.00573471
-0.00590074
-0.00566478
-0.00597456
-0.00560877
-0.00596341
-0.00614048
-0.00549017
-0.00553793
-0.00550581
-0.00606711
-0.00589497
-0.00557049
-0.00576093
-0.00569983
-0.00603337
-0.00583496
-0.0105937
-0.0104611
-0.0100764
-0.0110326
-0.011147
-0.0108233
-0.0101912
-0.0110722
-0.0109397
-0.00947158
-0.0100823
-0.00995489
-0.0103053
-0.00998697
-0.0112027
-0.0108507
-0.00992169
-0.0103511
-0.0100532
-0.0101847
-0.00987001
-0.00993608
-0.0103631
-0.00979191
-0.00994914
0.0291028
0.0282635
0.0283237
0.0287796
0.0289542
0.0285545
0.0283336
0.0283715
0.0290871
0.0288787
0.0289414
0.0286851
0.0287773
0.0285513
0.0288751
0.0289371
0.0289538
0.0287447
0.0283899
0.0290287
-0.00783316
-0.00864085
-0.00777513
-0.00826711
-0.00775191
-0.00744636
-0.00759758
-0.00836763
-0.00737501
-0.00767319
-0.00787182
-0.00806173
-0.00501055
-0.0050987
-0.00469043
-0.00455264
-0.00435961
-0.00507196
-0.00506955
-0.00520048
-0.00496357
-0.00453722
-0.00451617
-0.0048232
-0.0048616
-0.00450681
-0.00465095
-0.00459807
-0.0047749
-0.00463264
-0.00320654
-0.00301575
-0.00327076
-0.00300669
-0.00316101
-0.00352407
-0.00360631
-0.00373312
-0.00379694
-0.00305989
-0.00351395
-0.00317773
-0.00384375
-0.00368186
-0.00334594
-0.0031848
-0.00384011
-0.00350468
-0.00311427
-0.00247744
-0.00261908
-0.00278465
-0.00195914
-0.00251693
-0.00223237
-0.0020453
-0.00305407
-0.00252616
-0.00312265
-0.00309146
-0.00222694
-0.00219057
-0.00239748
-0.00320646
-0.00318808
-0.00691761
-0.00660078
-0.00704816
-0.00670131
-0.00611961
-0.0059537
-0.00603232
-0.00718292
-0.00744951
-0.00999496
-0.00977912
-0.00977775
-0.00996814
-0.010076
-0.0100873
-0.00989462
-0.0101798
-0.00986736
-0.00980158
-0.0100506
-0.00985688
-0.00484279
-0.00469042
-0.00487522
-0.00487298
-0.00478545
-0.00498687
-0.00492298
-0.00512957
-0.00512349
-0.00491079
-0.00537894
-0.00531467
-0.00527659
-0.0053744
-0.00518357
-0.00535867
0.0294704
0.0296754
0.0294096
0.0291486
0.0287889
0.0288499
0.0283851
0.0283265
0.0286032
0.0291458
-0.00783298
-0.00761904
-0.0078591
-0.00762065
-0.00792456
-0.0078032
-0.00807507
-0.00803667
-0.0081684
-0.0081778
-0.00792764
-0.00777352
-0.00797231
-0.00831007
-0.00824435
-0.00802133
-0.00798574
-0.00794683
-0.00577517
-0.00607096
-0.00568492
-0.0057738
-0.00572379
-0.00569092
-0.00592671
-0.00571793
-0.00586764
-0.00629915
-0.00605092
-0.0061114
-0.00587402
-0.00605884
-0.00564006
-0.00574162
-0.00594475
-0.00573878
0.00764569
0.00701709
0.00643124
0.00741324
0.0055746
0.00502127
0.00804421
0.00751376
0.00619393
0.00772208
0.00673284
0.00581219
0.00656572
0.00660181
0.0293967
0.0292953
0.0291713
0.0289985
0.02945
0.0290381
0.0288565
0.0288908
0.0292003
0.0290148
0.029192
0.0293173
0.0288853
0.0288521
0.0287401
0.0287818
0.029164
0.0289577
0.0291072
0.0288729
0.0418331
0.0404132
0.033714
0.036851
0.0262524
0.0306237
0.016077
0.031817
0.0319238
0.0292937
0.0349642
0.0250776
0.0366862
0.0417587
0.0376414
0.0450599
0.0268589
0.0380395
0.0335655
-0.0113222
-0.0120332
-0.00809529
-0.00684591
-0.0121406
-0.0149708
-0.0148236
-0.0175667
-0.00776159
-0.00800815
-0.0197551
-0.0159777
-0.00996039
-0.0138263
-0.0163646
-0.0109921
-0.0112494
-0.0168881
-0.0136328
-0.0140318
-0.00158492
-0.00220451
-0.00209946
-0.00225611
-0.00263473
-0.00184626
-0.00319047
-0.0024641
-0.00249136
-0.0024288
-0.00230601
-0.00221826
-0.00302298
-0.00214352
-0.00321812
-0.00303531
-0.00292226
-0.0028651
-0.00219754
-0.0111226
-0.0115419
-0.012762
-0.0129379
-0.0132518
-0.0128355
-0.0114268
-0.0118328
-0.0125467
-0.0101424
-0.0119411
-0.0121837
-0.0115967
-0.0122074
-0.0121192
-0.0120481
0.0311741
0.0311249
0.0309915
0.0310679
0.0313396
0.0313566
0.031234
0.0312621
0.0310726
0.0309379
0.0314549
0.031231
0.031396
0.0313914
0.0310176
0.0309388
0.0311055
0.0312753
0.0314064
0.0310036
-0.00126772
-0.00141573
-0.000850719
-0.000432655
-0.0033692
-0.00345601
-0.00388545
-0.00474237
-0.00264702
-0.00125233
-0.000878
-0.0033728
-0.00371868
-0.00424595
-0.00497508
-0.00485981
-0.00253963
-0.00435826
-0.00411067
-0.0030503
0.031311
0.0311965
0.0312794
0.0313223
0.0313117
0.031331
0.0312541
0.0313849
0.031449
0.0314571
0.0315245
0.0312322
0.0313998
0.0313702
0.0314799
0.0314625
0.0313471
-0.00557142
-0.00552509
-0.00562318
-0.00586602
-0.00582371
-0.00554899
-0.00533109
-0.00565815
-0.00574367
-0.00603623
-0.00535689
-0.0049474
0.0293734
0.0291901
0.0297403
0.0297431
0.0294981
0.0294444
0.0291024
0.0293173
0.0295422
0.0297051
0.029745
0.0293743
0.0292086
0.029327
0.0291256
0.0293274
0.0291229
0.0293894
0.0294555
0.0291144
0.0293583
0.0228877
0.0224478
0.0225449
0.0229637
0.0230049
0.022167
0.0225575
0.0242118
0.0243842
0.0241703
0.0234708
0.0231129
0.0227415
0.0226759
0.0227081
0.0233988
0.0232881
0.023291
0.00824431
0.0085005
0.00858816
0.00816892
0.00842937
0.00913523
0.00878301
0.00882317
0.00856457
0.00972261
0.00955629
0.00980171
0.00963198
0.00870168
0.00843124
0.0495045
0.0444328
0.0386192
0.0400499
0.0463893
0.0444324
0.0558551
0.0412659
0.0481457
0.04305
0.0554488
0.0552262
0.0509509
0.0442478
-0.00311354
-0.00278116
-0.00334787
-0.00386244
-0.00377494
-0.00400241
-0.00313942
-0.00332175
-0.00343049
-0.00319774
-0.00384985
-0.00350485
-0.00319171
-0.00272961
-0.00287521
-0.00333696
0.025072
0.0230232
0.024652
0.0228575
0.0225279
0.0229118
0.0232406
0.0232956
0.0241436
0.02455
0.0269926
0.0264836
0.025514
0.0278061
0.0283931
0.0258197
0.0268554
0.0305704
0.0305296
0.030126
0.0302261
0.0303289
0.0303824
0.0306031
0.0306403
0.0300917
0.0302096
0.0305503
0.0305775
0.0305334
0.0304107
0.0303669
0.0305336
0.030338
-0.014435
-0.012016
-0.0120492
-0.0152482
-0.0111276
-0.0166865
-0.0222095
-0.0113164
-0.0141073
-0.015046
-0.0139706
-0.0135768
-0.0146412
-0.0116933
-0.0170468
-0.0170612
-0.0141941
-0.0152473
0.017561
0.0172183
0.018843
0.0185152
0.0177992
0.016494
0.0168944
0.0184585
0.0189505
0.0185493
0.0182992
0.018609
0.0169155
0.0166641
0.016021
0.017842
0.0167031
0.0173249
0.0162881
0.0178038
0.0171016
0.0168632
-0.00577531
-0.00595301
-0.0058024
-0.00557839
-0.00526843
-0.00538419
-0.00416329
-0.00459786
-0.00558704
-0.00635179
-0.00573263
-0.00588137
-0.00479273
-0.0050451
-0.00481712
-0.00465713
-0.00449206
-0.0050292
-0.0043605
-0.00443055
-0.00486546
-0.00471554
-0.00446567
-0.00476224
-0.00506369
-0.00485103
-0.00493618
-0.00421236
-0.0042518
-0.0041542
-0.00432323
-0.00429523
-0.00499776
-0.00494952
-0.004896
-0.00461987
-0.00424815
-0.00469713
-0.00550001
-0.00537316
-0.00543573
-0.00558521
-0.00580871
-0.00585751
-0.0053644
-0.00572991
-0.00534598
-0.00551271
-0.00525261
-0.00572597
-0.00493429
-0.00525104
-0.00504792
-0.00578737
-0.00541628
-0.00506054
-0.00577668
-0.00827956
-0.0085293
-0.00815147
-0.00972743
-0.00734727
-0.00600713
-0.00929607
-0.00927631
-0.00384762
-0.00473013
-0.00255824
-0.00630066
-0.00401105
-0.00655088
-0.00598252
-0.00789547
-0.00752507
-0.00563212
-0.00533963
-0.00182187
-0.00393476
-0.00267576
0.00586662
0.00424561
0.00356848
0.00406451
0.00465171
0.0062579
0.00613781
0.0051017
0.00437747
0.0035498
0.00393839
0.00407269
0.00371998
0.00476868
0.00463074
0.00570882
0.00449777
0.00375894
0.00440666
-0.00839631
-0.00795444
-0.00814203
-0.00820497
-0.00833922
-0.00837248
-0.0085525
-0.00886192
-0.00835377
-0.00894462
-0.00844626
-0.00825435
-0.00830427
-0.00823163
-0.00829281
-0.0082456
-0.00829769
-0.00518719
-0.00535736
-0.00673546
-0.00627244
-0.0060355
-0.00630626
-0.00649579
-0.00620047
-0.00562977
-0.00638569
-0.00584226
-0.00641563
-0.00608554
-0.00617374
-0.00337921
-0.00396611
-0.00434056
-0.00451042
-0.00395619
-0.00429781
-0.00332558
-0.00440959
-0.00464832
-0.00495996
-0.00497369
-0.00332928
-0.00437691
-0.0045995
-0.00449729
-0.00360496
-0.00450967
-0.000216145
-0.000480102
-0.000257887
-5.63658e-05
-0.000175212
-0.000293951
-0.000340991
-0.000368397
-8.46964e-05
-0.00025418
-0.000523481
-0.000479387
-0.00077617
-0.000674788
-0.000193751
-0.000360705
-0.0007838
-0.000696327
-0.000721893
-0.000663823
-0.000327405
-0.000112706
-0.00070882
-4.09589e-05
-0.000269837
-0.000303201
-0.000426842
-0.000626262
-0.00035494
-0.000235699
-0.000245368
2.70374e-05
-5.18292e-05
-0.000295837
-0.000605708
-0.000223067
-0.000284356
-0.000587697
-0.000123108
-0.000281638
-0.0124026
-0.0135413
-0.0161538
-0.0171025
-0.0165208
-0.0173983
-0.013229
-0.0143573
-0.0150647
-0.0111469
-0.013112
-0.0138156
-0.015448
-0.0147813
-0.014343
-0.0133122
-0.0130241
-0.000618526
-0.000617084
-0.00101011
0.00028551
-0.000358212
-0.00123755
-0.00150224
0.000348761
6.30335e-05
-0.000894339
-0.00903617
-0.00903674
-0.00912423
-0.00932888
-0.00876211
-0.00877106
-0.00898138
-0.00927546
-0.00928585
-0.00918003
-0.00902126
-0.00878621
-0.00882735
-0.00881248
-0.00868051
-0.00896947
-0.00887619
-0.00905113
-0.00803135
-0.00799593
-0.00811082
-0.00773702
-0.00815816
-0.00785482
-0.007905
-0.00782766
-0.00756811
-0.00767628
-0.00823258
-0.00831117
-0.00802514
-0.000598891
-0.000355509
-0.000776838
-0.000467569
-0.000878845
-0.00124677
-0.000921137
-0.000275049
-0.000159473
-0.000578375
-0.00102844
-0.000975494
-0.000182372
-0.000182378
-0.00863479
-0.00860546
-0.00884475
-0.00874768
-0.00858746
-0.00863436
-0.00878097
-0.00869218
-0.00870951
-0.00870905
-0.00868929
-0.00883978
-0.00868865
-0.00856445
-0.00898469
-0.0184409
-0.0176795
-0.0170097
-0.0173494
-0.0175761
-0.0163269
-0.01942
-0.0184249
-0.0181264
-0.018704
-0.018943
-0.0186178
-0.0176349
-0.0175027
-0.0175519
-0.0180911
-0.0183007
-0.01852
0.0302229
0.0302188
0.0304738
0.0298217
0.0299357
0.0298966
0.030005
0.029826
0.0301457
0.0301233
-0.00872667
-0.00877016
-0.00874975
-0.00897689
-0.00870375
-0.00898872
-0.00868076
-0.00876836
-0.00857058
-0.00865348
-0.00866601
-0.00888938
-0.00895355
-0.00877946
-0.00899817
-0.00866393
-0.00876965
-0.00879681
-0.00858305
-0.00874369
-0.00879302
-0.00878022
-0.00532956
-0.00522668
-0.00556784
-0.00561935
-0.0047815
-0.00460462
-0.00536156
-0.00523905
-0.00535753
-0.00487113
-0.00451163
-0.00471759
-0.00531028
-0.00507875
-0.00495642
-0.0049449
-0.00515825
-0.00472486
0.0318813
0.0328502
0.0341137
0.0328086
0.0313905
0.0338659
0.032042
0.0329866
0.0293035
0.0311768
0.0327455
0.0299296
0.0302554
0.0290078
0.0277354
0.0308472
0.0286601
0.0275231
0.0285944
0.0321111
0.0299068
0.0289919
0.0263665
0.0316662
0.0324473
0.0338524
0.0332989
0.0376351
0.03682
0.0341757
0.0367068
0.0300173
0.0291867
0.037505
0.0384564
0.0352061
0.0377754
0.0311787
0.0312936
0.0313501
0.0311611
0.0312678
0.0311607
0.0313372
0.0312867
0.031134
0.0312641
0.0310793
0.031116
0.0313376
0.0312752
0.0312784
0.0313369
0.0307824
0.0265866
0.0261556
0.0285006
0.0296242
0.0314835
0.0294439
0.0295319
0.0258264
0.0251363
0.0298246
0.0276678
0.029228
0.0264595
0.028558
0.0263155
0.0260463
0.0273229
0.0279048
0.0267915
0.0274795
0.0285868
0.0284237
0.0277055
0.026965
0.0286176
0.0290167
0.0284973
0.0233651
0.0229401
0.0251534
0.0265515
0.0146903
0.0136949
0.0237291
0.0236053
0.0143872
0.0166107
0.0191473
0.0191343
0.0207583
0.0182498
0.0158702
0.0137441
0.0290952
0.0282561
0.0286149
0.0291304
0.0283311
0.0296544
0.0292511
0.0284523
0.0284695
0.0313087
0.0308786
0.0305567
0.0300055
0.0288896
0.0300239
0.0294597
0.0305152
0.0299013
0.0292495
0.0307976
0.00896685
0.0107439
0.00547088
0.00252325
0.00374879
0.00657322
0.0138811
0.00560467
0.00952593
0.00948161
0.00315673
0.00822685
0.00893221
0.00579626
0.00882235
0.0154579
0.0155401
0.0140043
0.0120089
0.0103534
0.0193285
0.016467
0.0165182
0.0136899
0.0176619
0.0177731
0.0177491
0.015096
0.013646
0.0147559
0.0148906
0.0156323
0.0159566
0.0304576
0.0305044
0.0303128
0.0302078
0.0308776
0.03085
0.0304156
0.030257
0.0310305
0.0310382
0.0304734
0.0307601
0.0310197
0.0309862
0.0308806
-0.0103389
-0.00998892
-0.0103776
-0.010406
-0.0108872
-0.00980867
-0.0098736
-0.0116127
-0.0112534
0.0328521
0.0319791
0.0309716
0.0309202
0.0316555
0.0310428
0.0332725
0.0307261
0.0344961
0.0330561
0.0308467
0.0327027
0.0333383
0.0336934
0.0341638
0.0299527
0.030259
0.0320368
0.0341983
0.032869
0.0304413
0.0313168
0.00485469
0.00555961
0.00493068
0.00295753
0.00399242
0.00493809
0.00182063
0.0030938
0.00339746
0.00128801
0.00247934
0.000425326
0.00130848
0.000198727
-0.000249026
0.000532049
0.00176657
0.00336563
-0.000559866
0.00223448
0.0292994
0.0276189
0.0323377
0.0278397
0.0297225
0.0362042
0.0334741
0.02964
0.0334022
0.0289116
0.0313544
0.0372304
0.0350575
0.0357936
0.0392283
0.0325549
0.0318677
0.0301194
0.0346033
0.0285582
0.0317518
0.0294854
0.0333353
0.0377845
0.0386893
0.0367678
-0.00840643
-0.00931318
-0.00898228
-0.00842251
-0.00880014
-0.00928508
-0.00894118
-0.00864555
-0.00973452
-0.00867786
-0.0088612
-0.00911479
-0.00865987
-0.00838164
-0.00832509
-0.00876088
-0.00855974
-0.00909819
-0.0087668
-0.0083148
-0.00835854
-0.00845659
-0.00847399
-0.00879072
-0.00847351
-0.00877057
-0.0065388
-0.00629975
-0.00699937
-0.00749141
-0.00645548
-0.0066793
-0.00641718
-0.00554978
-0.00736831
-0.00484017
-0.00724116
-0.00607526
-0.00561809
-0.0062184
-0.00708283
-0.00708854
-0.00660017
-0.00633387
0.0112925
0.0108042
0.00738819
0.00934003
0.008006
0.00607421
0.00279022
0.00739174
0.00767425
0.00528729
0.000445191
0.0041324
0.0055644
0.0265696
0.0273625
0.0277057
0.0263346
0.0280044
0.0277787
0.0281708
0.0273039
0.0274349
0.026428
0.0266053
0.0285021
0.0278711
-0.0112706
-0.0110733
-0.0120305
-0.0114116
-0.011466
-0.0120623
-0.0132765
-0.0128494
-0.0141345
-0.012109
-0.0122425
-0.0120949
-0.0131936
-0.0104175
-0.00911219
-0.00897646
-0.00937359
-0.00954298
-0.0100548
-0.0100231
-0.0102229
-0.00906813
-0.0091619
-0.00960892
-0.00911169
-0.00882765
-0.00915666
-0.00915016
-0.00839748
-0.00825104
-0.00841772
-0.00831846
-0.00841617
-0.00828204
-0.00816976
-0.00824644
-0.00814461
-0.0084263
-0.008359
-0.00855879
-0.00836783
-0.00824699
-0.00817015
-0.00816388
-0.0089963
-0.0086469
-0.00859815
-0.00845562
-0.00856432
-0.00846889
-0.00844443
-0.00881028
-0.00851509
-0.00843524
-0.00867914
-0.00868242
-0.00861929
-0.0091832
-0.00640371
-0.00766151
-0.00792083
-0.00611693
-0.00701552
-0.00752838
-0.00818044
-0.00622893
-0.0059976
-0.00662369
-0.00684957
0.0240574
0.0256472
0.0247352
0.0258779
0.0251227
0.0260228
0.0251277
0.0243688
0.0255185
0.0246176
0.0259898
0.0237844
0.0253382
0.0338046
0.0366993
0.0390444
0.0473714
0.0451842
0.0336766
0.0508497
0.0500272
0.0371132
0.042778
0.0352955
0.0374811
0.045812
0.0497585
0.0525358
0.0408062
0.0426587
0.039386
0.0491227
0.0470924
0.0452671
0.0422815
0.0348101
0.0348486
0.034769
0.033496
0.0332275
0.0319403
0.0323646
0.0328364
0.03214
0.0311255
0.0312239
0.0210245
0.0203535
0.0200691
0.0196465
0.0221481
0.0216397
0.019938
0.0213567
0.0205496
0.019632
0.0188287
0.0190914
0.0208274
0.0222564
0.0224402
0.0196535
0.0190928
0.0213888
0.0185336
0.0326698
0.0329586
0.0328408
0.0328356
0.0335794
0.0334107
0.0331948
0.0330221
0.0330191
0.0334228
0.0341809
0.0338841
0.0343186
-0.00897912
-0.00472786
-0.00218248
-0.00611879
-0.00412883
-5.52679e-05
-0.000218446
0.000266087
0.00119356
-0.00328105
-0.000937944
-0.00899583
-0.0123362
-0.00342069
-0.000118414
-0.0067023
-0.00419638
-0.0126274
-0.00754179
-0.0133339
-0.00625825
-0.00820995
-0.00807593
-0.00825395
-0.00829599
-0.00797052
-0.0081298
-0.00836976
-0.00861996
-0.0082835
-0.00821047
-0.0085945
-0.00842391
-0.00816157
-0.00823779
-0.00819354
-0.00824966
-0.00797141
-0.00827899
-0.00927134
-0.0103419
-0.00860196
-0.00808767
-0.00840163
-0.00964802
-0.0089991
-0.00898465
-0.00806015
-0.00892168
-0.0102249
-0.0117229
-0.00970617
-0.00942303
-0.00775857
-0.00620681
-0.00808159
-0.00732798
-0.0065512
-0.00838641
-0.00951918
-0.00736013
-0.00622037
-0.00726833
-0.00621171
-0.00769794
-0.00669229
-0.00322578
-0.00369856
-0.00395363
-0.0038177
-0.00417609
-0.0120742
-0.0142854
-0.0127298
-0.0141236
-0.0184797
-0.0120167
-0.0158055
-0.019199
-0.0185612
-0.0227114
-0.0237895
-0.0204805
-0.0199184
-0.0205321
-0.0160339
-0.00216966
-0.00279332
-0.00265068
-0.00373376
-0.00338279
-0.00308915
-0.00347187
-0.00284778
-0.00337451
-0.00217906
-0.00189644
-0.00325753
-0.00320007
-0.00249531
-0.00133235
-0.00223247
-0.00317933
-0.00243981
0.0163857
0.0143517
0.0101557
0.0173132
0.00399413
-0.00663824
0.0165814
0.00661931
0.0156436
0.00955664
0.0108148
-0.0197594
-0.0121527
-0.0309877
0.00447082
0.00402412
0.00107009
-0.00922003
-0.00194682
0.00346356
-0.0188301
-0.0183921
-0.0184795
-0.0169587
-0.017334
-0.0161948
-0.0160831
-0.015882
-0.0172833
-0.0174852
-0.0154727
-0.016139
-0.0166538
-0.0157449
-0.0118135
-0.0101362
-0.0109375
-0.0126582
-0.00832865
-0.00905906
-0.010468
-0.0126638
-0.0102433
-0.00990466
-0.0126309
-0.0114242
-0.0075852
-0.00831427
-0.00750001
-0.00812205
-0.00817006
-0.00848569
-0.00685457
-0.00791741
-0.00708705
-0.00977768
-0.0130788
-0.00842253
-0.0141125
-0.0122393
-0.0141211
-0.0135081
-0.004168
-0.00469034
-0.00445521
-0.00657557
-0.00859892
-0.00904048
-0.0107513
-0.0109458
-0.00567408
-0.00850384
-0.00591708
-0.00607908
-0.0026083
-0.00431038
-0.00452492
-0.00414739
-0.000797328
-0.00100504
-0.00203113
0.00101278
0.00103864
-0.00244824
-0.00470293
-0.00178042
-0.000661726
0.00087142
0.00142616
-0.00311094
-0.000637591
-0.000968376
-0.0024857
-0.00123521
0.0126666
0.013281
0.0103845
0.0107795
0.0133504
0.0114945
0.0110485
0.0116433
0.012178
0.011617
0.0105791
0.0111978
0.0112973
0.0103787
0.013208
-0.0102951