/*--------------------------------*- C++ -*----------------------------------*\
  =========                 |
  \\      /  F ield         | OpenFOAM: The Open Source CFD Toolbox
   \\    /   O peration     | Website:  https://openfoam.org
    \\  /    A nd           | Version:  10
     \\/     M anipulation  |
\*---------------------------------------------------------------------------*/
FoamFile
{
    format      ascii;
    class       volScalarField;
    location    "10";
    object      k;
}
// * * * * * * * * * * * * * * * * * * * * * * * * * * * * * * * * * * * * * //

dimensions      [0 2 -2 0 0 0 0];

internalField   nonuniform List<scalar> 
75457
(
1.99512
2.25686
1.3673
0.730253
1.42802
1.60123
1.75346
1.59937
0.490889
0.478249
0.425456
1.23737
1.08443
0.520556
0.0853175
0.0735797
0.0171356
0.049123
0.0604538
0.0128952
0.0290556
0.0229596
0.0806852
0.082376
0.0495414
0.0990001
0.101278
0.0855466
0.0830427
0.112414
0.0722699
0.104545
0.106495
0.0480589
0.0430644
0.0586126
0.048203
0.112468
0.102605
0.0539924
0.0588197
0.0511526
0.0529862
0.0321904
0.0531897
0.0161984
0.0113716
0.0260075
0.59004
0.182907
0.371975
0.525129
1.23476
0.366211
0.212651
0.232248
0.957471
0.924915
0.793476
1.31049
1.07382
0.658848
0.453662
0.320723
0.0561923
0.329719
0.0885177
0.375943
0.484968
0.909054
0.463995
0.989189
0.363597
0.0287583
0.453471
0.12938
0.136885
2.15773
1.72165
1.19772
1.5829
1.64559
2.0582
1.51611
0.901163
0.895133
1.04504
1.1605
2.18223
1.48963
1.81262
1.34884
1.75077
1.49745
0.908094
0.332412
0.360152
0.395296
1.72544
0.837556
0.798694
1.23958
0.113916
0.027266
0.0400988
0.0557477
0.186883
0.0406339
1.07738
0.310997
0.375344
0.780897
0.837776
0.697067
0.0715129
0.833716
1.2867
0.457234
0.447912
1.54286
0.0187391
0.0722037
0.0767288
0.185854
0.444591
0.270728
0.822795
0.440281
0.84463
0.0930339
0.16931
0.903089
0.273674
0.586991
0.518749
0.868668
0.360706
0.743292
0.710698
1.30495
0.134059
0.264623
0.459883
0.150774
0.187815
0.650599
0.587257
0.52402
1.22021
0.698319
1.7875
1.10475
0.279882
0.196496
0.614222
0.973093
0.628514
1.29581
0.411005
0.872668
1.24281
0.311385
0.999493
0.00522589
0.00543736
0.0056255
0.00546538
0.00558191
0.00503089
0.00500556
0.00519558
0.00557142
0.00511346
0.00532473
0.005182
0.00505245
0.683628
0.72769
0.87667
1.11561
0.979243
1.18092
0.69787
0.90949
1.42903
0.525927
0.727443
0.854296
1.34951
2.80693
0.945063
0.567132
0.822186
0.91761
0.629748
1.35815
0.107111
0.247749
0.188942
0.142461
0.0932328
0.57386
0.72019
0.744072
0.475873
0.523772
0.899067
1.51666
1.47126
1.48222
1.18875
1.19287
1.55094
1.71052
1.0615
1.02395
1.77057
1.14025
1.87835
1.84402
1.66895
0.916106
0.945408
1.28943
0.887244
0.955698
1.83371
0.893443
0.835023
0.966181
0.232748
0.21977
1.25795
0.66052
0.880802
0.758923
1.12621
0.401604
0.433279
0.462302
0.471677
1.02572
1.19671
0.892441
1.21244
0.946001
0.722351
0.870109
1.13254
1.57152
1.0758
1.2283
0.688987
1.10451
0.721464
0.763993
0.421549
0.235712
0.332286
0.0514466
0.126999
0.149344
0.425046
0.360954
0.916654
1.57138
1.11743
2.07101
1.43729
1.40677
1.6211
1.34093
0.816385
0.847531
0.899944
0.768827
0.972008
0.891754
1.18715
0.854679
1.06518
1.03093
0.970663
0.918726
0.774576
0.848201
0.685239
0.278792
0.317796
0.497203
0.41471
0.47285
0.733491
1.01317
1.05824
1.30915
1.1085
0.919005
0.928561
1.13602
0.955282
0.445803
1.17881
0.306442
0.311291
0.309654
0.289887
0.342683
0.350582
0.572273
0.358416
0.40662
0.360367
0.347184
0.627228
0.897446
0.850208
0.61775
0.608791
0.754657
0.576503
0.469872
0.530175
0.29048
0.212023
0.505081
0.435838
0.451781
0.968492
1.08107
0.590875
0.550494
1.0925
1.26271
0.534843
0.55967
1.16459
1.09273
1.83895
1.0796
1.05575
1.66224
0.65282
0.695921
0.691149
0.458096
0.766253
0.714407
0.886491
0.902762
0.687096
0.458554
0.733852
0.52491
1.06451
1.1618
1.28598
2.26694
0.858699
0.729081
1.36751
1.45854
1.45414
1.38453
0.370905
0.356501
0.432853
0.454264
0.671341
0.557686
1.08285
0.579046
0.637227
0.873783
1.5267
1.07699
0.978324
0.914766
0.991624
0.652475
0.630218
0.6058
0.893146
0.880314
1.23721
1.18804
0.865406
1.06738
0.334494
0.297857
0.768211
0.00403141
0.00423443
0.00376198
0.00374213
0.00417748
0.00423971
0.00398336
0.00428103
0.00408071
0.00425142
0.00378263
0.00371923
0.00379703
0.00389179
0.00377909
0.00383304
0.00362283
0.0037133
0.0039119
0.00393587
0.00381098
0.00357847
0.00354051
0.00352332
0.00390166
0.00383939
0.00373778
0.00353991
0.00348429
0.00368815
0.0037412
0.00388302
0.0039101
0.00368974
0.00370881
0.00382219
0.00378293
0.00374344
0.00378533
0.00388252
0.00387852
0.00373715
0.00381535
0.00375605
0.00376186
0.00372177
0.0037847
0.00388125
0.00400856
0.00374034
0.00386368
0.00386541
0.00380735
0.189044
0.0719211
0.0761075
0.0697185
0.0740514
0.156292
0.0650987
0.0791416
0.053569
0.183416
0.0547235
0.0534382
0.0577001
0.0602231
0.0469622
0.161114
1.50025
0.930022
0.8814
0.939334
0.418183
0.438168
0.790018
0.813195
0.412284
0.405568
1.90022
1.48944
1.55876
0.982187
0.456086
0.0954158
0.0128081
0.0186183
0.0776854
0.0759004
0.0474073
0.0181479
0.0174145
0.0174582
0.0220762
0.0136723
0.0445547
0.0737891
0.0717322
0.0811492
0.248761
0.0905376
0.0561066
0.0550502
0.00399852
0.00405706
0.00407926
0.00399511
0.00392506
0.00413445
0.00415488
0.00379497
0.00393244
0.00409267
0.00411619
0.00439886
0.0041395
0.00397044
0.00396809
0.0040053
0.00491286
0.00469617
0.0049761
0.00472389
0.00453232
0.00502819
0.00542509
0.00511323
0.00496224
0.00511624
0.00505041
0.00488131
0.0051179
0.00487254
0.00496639
0.00539046
0.00541064
0.00444258
0.00475865
0.0045039
0.00473981
0.00467108
0.00454515
0.00344185
0.00707137
0.00428074
0.00458813
0.00402178
0.00447712
0.00428756
0.00446611
0.00421263
0.00428896
0.00349515
0.393332
0.32493
0.365614
0.426433
0.305
0.423244
0.411526
0.45262
0.334587
0.344758
0.352999
0.435917
0.516943
0.403669
0.483826
0.32807
0.452376
0.49705
0.0467881
0.0504126
0.0620702
0.083365
0.0298789
0.096609
0.0504147
0.0544196
0.0584856
0.11683
0.0674523
0.0631587
0.0636405
0.034336
0.117144
0.107661
0.160174
0.103313
0.173925
0.170281
0.17394
0.115468
0.103865
0.176787
0.180817
0.177833
0.119319
0.0813296
0.0805416
0.162
0.110337
0.157172
0.00391233
0.00392985
0.00395585
0.00442975
0.00471717
0.00394971
0.00382298
0.00433498
0.00418137
0.00423389
0.00364208
0.00466525
0.362208
0.232746
0.462494
0.181733
0.418914
0.315414
0.3641
0.362743
0.410239
0.107413
0.067932
0.0841955
0.0912909
0.0720343
0.0821149
0.0874485
0.0121954
0.0511904
0.00916012
0.0404505
0.122692
0.100277
0.150229
0.0931803
0.0794854
0.0447924
0.0306639
0.0143071
0.110529
0.0286365
0.0378435
0.0443336
0.00591201
0.00151405
0.0397617
0.00704238
0.00200058
0.0561376
0.0425384
0.0111333
0.000209655
0.00304234
0.0009501
0.00198657
0.0033581
0.00294938
0.00779855
0.0560415
0.0508472
0.0503792
0.0155851
0.127793
0.101941
0.0672089
0.183881
0.0976641
0.144663
0.11343
0.0562776
0.0980205
0.053874
0.163004
0.131263
0.109148
0.110953
0.279411
0.284848
0.262008
0.272504
0.25998
0.266293
0.200564
0.214617
0.258607
0.178291
0.18702
0.291097
0.212697
0.191048
0.203923
0.178703
0.182239
0.197365
0.205048
0.42598
0.474632
0.0313508
0.0871032
0.329563
0.177731
0.0236373
0.0702928
0.557181
0.372678
1.09221
1.00664
1.23414
1.28675
1.16399
1.12113
1.08651
1.04572
1.00656
0.99689
1.32678
1.48897
1.53329
1.36373
1.42697
1.35506
1.09375
1.14892
1.36757
1.26652
1.26597
0.0358562
0.0271719
0.0863614
0.0608971
0.0698162
0.0302051
0.0532839
0.0529038
0.0502063
0.162319
0.206894
0.267086
0.0265484
0.207162
0.373761
0.156178
0.265453
0.0503088
0.110853
0.16256
0.373025
0.0651436
0.0994454
0.54017
0.41914
0.0964898
0.362141
0.148397
0.846475
0.862382
0.860185
0.970547
0.920528
1.02554
1.13476
1.05105
1.0341
0.970649
1.11474
1.02748
1.09061
0.0528222
0.0638869
0.0173237
0.0219166
0.0194871
0.017314
0.0294554
0.036219
0.114548
0.0408527
0.0702012
0.077459
0.0202467
0.020738
0.0771107
0.0387979
0.0731051
0.0705687
0.0522954
0.0976116
0.117146
0.0438019
0.0652008
0.0221907
0.0993612
0.0302289
0.0233737
0.123127
0.109616
0.0187085
0.0715854
0.0932134
0.0724216
0.0673161
0.116727
0.028362
0.0487886
0.170398
0.0963106
0.0405888
0.00520972
0.0127126
0.100599
0.193005
0.0416636
0.0445263
0.118943
0.168214
0.043328
0.0485903
0.0742444
0.0511342
0.052661
0.103755
0.115357
0.16283
0.0564372
0.0547441
0.0806997
0.170067
0.0576036
0.0427537
0.0842955
0.0423006
0.238747
0.274172
0.0157253
0.0293835
0.050335
0.0730419
0.0285773
0.0370164
0.0820638
0.193266
0.28472
0.209747
0.0411469
0.0606095
0.0310372
0.121929
0.0763377
0.0262799
0.0246768
0.0214626
0.0244908
0.025864
0.0205584
0.0179041
0.0173953
0.0170902
0.0205441
0.0213457
0.0157005
0.0214526
0.0239109
0.00380671
0.003765
0.00391088
0.00389038
0.00392724
0.00385731
0.0040282
0.00391202
0.00421903
0.00433165
0.125888
0.0842521
0.135462
0.18327
0.0564132
0.0501259
0.17208
0.252777
0.069336
0.145259
0.139537
0.142202
0.173242
0.0482508
0.166704
0.139204
0.0327855
0.614356
0.669003
0.639696
1.0763
0.973409
0.769299
0.950072
0.89348
0.932158
1.0117
0.58186
0.578634
0.713522
0.641019
0.879108
0.91443
0.898645
0.613071
0.655161
0.683978
0.00235628
0.00366861
0.00368661
0.00216455
0.00486996
0.028879
0.0333933
0.00547554
0.00378592
0.00339241
0.0316477
0.0396034
0.00201305
0.0180626
0.0242232
0.0461327
1.92803
2.24657
2.49065
2.30196
1.69754
2.15463
1.73123
2.41383
2.76107
2.53289
1.85825
2.06662
2.36318
0.115205
0.168076
0.143983
0.0889794
0.0788559
0.0894159
0.150898
0.128753
0.0982896
0.0961878
0.0555693
0.0984058
0.0415717
0.117139
0.0950588
0.0546835
0.122277
0.109982
0.0501131
0.0456789
0.0437957
0.0538035
0.00134995
0.000247685
0.00268921
0.00158252
0.00130577
0.0262641
0.105537
0.00404312
0.037758
0.214291
0.244961
0.130307
0.12131
0.148321
0.0396259
0.1399
0.168025
0.128082
0.0467377
0.0461538
0.118269
0.0215318
0.0606791
0.0525371
0.0401054
0.0399725
0.0628078
0.0371714
0.669451
0.75334
0.945025
0.880726
0.786291
0.785515
0.882682
0.873471
1.07015
0.91504
1.03318
1.06041
1.05653
1.14998
0.997823
1.00002
0.0701613
0.163966
0.131404
0.0739617
0.0109874
0.0204679
0.0260125
0.0112962
0.0104267
0.00986613
0.0926426
0.0628756
0.0183356
0.00173663
0.0293503
0.0225506
1.16342
1.65888
1.14481
1.50161
1.31105
1.84907
0.498476
0.608885
0.464622
0.498201
0.51143
0.728051
1.3896
1.81698
1.22715
0.814248
1.00833
1.01225
0.727881
1.64854
0.0134642
0.00924335
0.00737845
0.00649848
0.00788952
0.00582908
0.00656285
0.00670107
0.00662828
0.0148098
0.0165941
0.00883353
0.00869423
0.00589646
0.0156777
0.0618497
0.0727228
0.120077
0.165427
0.228393
0.226564
0.285283
0.112842
0.387577
0.515249
0.445034
0.219569
0.58817
0.59616
0.0266542
0.047
0.0194688
0.0244325
0.021524
0.0329959
0.0140357
0.00708887
0.0349295
0.00774947
0.0192725
0.00705098
0.0108907
0.00637728
0.0055154
0.0061206
0.0735666
0.0798419
0.0626239
0.0633457
0.221114
0.228234
0.0410122
0.118912
0.114407
0.0509129
0.218321
0.172451
0.262645
0.16369
0.175054
0.236484
0.242299
0.280827
0.282273
0.012955
0.0548994
0.0246547
0.0273465
0.0148263
0.125642
0.0363891
0.0594251
0.0746861
0.0547623
0.0132147
0.0173282
0.0217201
0.0161856
0.0816125
0.0650689
0.0472491
0.114449
0.0788914
0.0949989
0.037678
0.0573968
0.120024
0.0741446
0.0608486
0.0158793
0.0118899
0.0105269
0.0780352
0.00449048
0.00649692
0.0254167
0.0229198
0.0123817
0.0110818
0.026071
0.0288894
0.0133556
0.0249234
0.00906726
0.00731143
0.00731922
0.00809627
0.0308159
0.00852757
0.0231281
0.0207904
0.0166234
0.0311881
0.0244007
0.0250162
0.0619545
0.0231511
0.0653531
0.0719432
0.0560402
0.0397166
0.523756
1.14153
1.66397
0.881306
1.28615
0.642527
0.79749
1.20977
1.40199
0.471105
0.941548
1.10893
1.60963
0.634371
1.09584
0.304627
0.810456
0.45383
0.403471
0.730549
0.869629
0.670871
0.3951
0.351647
0.3474
1.21672
1.21904
1.22623
1.3713
0.342938
0.351878
0.33898
0.307091
0.333307
0.611435
0.640041
0.557247
0.0429281
0.0866833
0.0242618
0.0431567
0.0257237
0.0191537
0.0122582
0.0284975
0.017311
0.0161069
0.0173744
0.0147046
0.0150221
0.0155168
0.01573
0.0113901
0.735717
0.798073
0.747935
0.797926
0.726004
0.742522
0.795256
0.672399
0.624861
0.852043
0.792172
0.912781
0.201659
1.18145
1.35286
0.972423
1.1332
0.286596
0.0685572
0.930896
0.0614776
0.975122
1.2615
0.39419
0.757812
0.288519
1.12506
1.44789
1.06246
0.120437
0.342998
0.434103
1.59966
0.355444
0.73224
0.816809
1.34714
0.385641
0.578637
0.567458
1.08179
0.318006
0.481077
1.55376
0.359796
0.723774
0.392446
0.923739
1.37953
0.750159
0.447754
1.09393
1.20738
0.369665
0.229051
0.862673
0.230156
0.826852
1.36198
0.824311
0.220876
0.264346
1.25478
0.829261
0.271601
0.235871
0.327052
0.252264
0.107951
0.170086
0.135162
0.265728
0.279561
0.0711255
0.0855447
0.0902477
0.214969
0.324119
0.136379
0.167215
0.0865263
0.22284
0.240229
0.083415
0.0787027
0.0443938
0.0369039
0.0397038
0.0456503
0.120818
0.0684412
0.0446518
0.0682243
0.0461816
0.41446
0.702107
0.28503
0.0108557
0.0104565
0.0100543
0.0103682
0.0111695
0.00938571
0.0335664
0.0389908
0.0610939
0.0320631
0.0016113
0.012878
0.0141091
0.00848363
0.0274596
0.0265322
0.0782878
0.0303708
0.00658366
0.00738823
0.705764
0.728324
0.776208
0.621209
0.910632
0.909924
0.927852
0.775565
0.547367
0.67293
0.734344
0.714592
0.689188
0.731535
0.604293
0.678462
0.572964
0.551583
0.558269
0.0293999
0.0133989
0.0197091
0.0150955
0.455061
0.720965
0.202781
0.331284
0.0544053
0.0226897
0.340279
0.0801315
0.0281027
0.181002
0.586508
0.210169
0.128259
0.296527
0.127696
0.304389
0.113269
0.106121
0.196712
0.119925
0.187916
0.813518
1.03219
0.518095
0.532815
0.399449
0.29008
0.197403
0.332399
0.271737
0.620807
0.2622
0.167493
0.137764
0.261581
0.923106
0.992085
1.09574
1.04261
0.962363
1.04967
1.00674
1.06166
1.05562
0.909414
0.860403
1.00451
0.889853
0.929867
0.951728
0.874261
0.0235301
0.0222431
0.0247532
0.0299175
0.0303878
0.0269075
0.0503728
0.0418812
0.0448322
0.0276897
0.0314434
0.0300563
0.045483
0.0351457
0.0358
0.0345139
0.0417251
0.0391456
0.0394246
0.0304047
0.727063
1.00409
0.600237
1.01021
0.460374
0.523234
0.185787
0.325946
1.11804
0.654762
1.13124
0.938589
0.242649
0.233121
1.14826
0.839178
1.12522
0.733275
1.41563
0.482672
0.0219365
0.044589
0.0551494
0.0549558
0.0372832
0.0281714
0.0250136
0.0391208
0.0490269
0.0417577
0.0426068
0.0380402
0.0658492
0.0316462
0.0840491
0.0765701
0.078463
0.497805
1.0653
0.96798
1.84322
0.546081
0.620799
0.79085
0.848559
2.8108
0.806652
0.483275
1.55784
0.0119942
0.010499
0.00903017
0.00413258
0.0114668
0.00835358
0.0077069
0.00525386
0.00496276
0.0136196
0.00884697
0.00478813
0.057018
0.000275511
0.0196556
0.00104184
0.0309889
0.0975213
0.00110945
0.0563579
0.0806328
0.164362
0.148666
0.0069087
0.0116787
0.247942
0.176451
0.262811
0.00922567
0.0212752
0.0352016
0.00783627
0.0170713
0.0202182
0.00772694
0.0713557
0.0210198
0.0301709
0.00986931
0.0512873
0.151403
0.041269
0.0660461
0.0949998
0.359883
0.0159501
0.0140036
0.264168
0.468324
0.0362317
0.0297276
0.0971261
0.242113
0.067235
0.242141
0.246363
0.200776
0.105602
0.141862
0.216056
0.153325
0.152876
0.0793007
0.021621
0.122512
0.0676857
0.0627759
0.0209367
0.0145411
0.0233256
0.029001
0.0528921
0.00190471
0.00393952
0.00271238
0.00263345
0.0726929
0.0715909
0.00882452
0.00105626
0.00501184
0.0376912
0.0721981
0.0712013
0.0113563
0.00328403
0.00515219
0.13391
0.0765897
0.511583
0.358838
0.125079
0.485506
0.328261
0.218878
0.104469
0.00226276
0.00129561
0.0160278
0.0533148
0.00477199
0.0209696
0.0213598
0.00742062
0.0269076
0.0188767
0.0204813
0.024659
0.02489
0.0106156
0.0110111
0.022775
0.0274567
0.0257726
0.0207315
0.0176662
0.026129
0.0200774
0.114118
0.0709199
0.0646212
0.160629
0.0665769
0.532733
1.07025
0.0939442
0.253974
0.304641
0.208691
0.351935
0.310707
0.125904
0.718237
0.887069
1.21069
0.946996
0.499984
0.388158
0.229066
0.067084
0.0838815
0.381778
0.347477
0.153945
0.148344
0.145524
0.081424
0.100736
0.156669
0.0950513
0.0820609
0.123866
0.0719663
0.0466039
0.128267
0.194745
0.125493
0.123047
0.375953
0.388316
0.387598
0.392483
0.383059
0.377327
0.375983
0.386251
0.399621
0.379079
0.366678
0.386466
0.467735
0.46816
0.392737
0.378526
0.479908
0.369046
0.410179
0.51304
0.48453
0.410202
0.921802
0.73987
0.57015
0.789342
1.1697
0.726686
0.432738
0.817693
0.438409
0.75416
0.791678
1.51029
1.58243
0.870747
1.43192
1.68975
1.09385
1.55222
1.07416
0.72704
0.496931
0.357189
1.40524
0.994486
1.01823
0.19605
0.335208
1.20669
0.269766
0.997143
0.880422
0.249307
0.224631
0.190633
0.798634
0.982357
0.990374
0.96917
0.949441
0.983348
0.994243
0.951052
1.01359
0.967783
0.973703
0.989084
0.958735
0.839451
0.857559
0.779836
1.02727
0.959569
0.943288
0.813367
0.876046
0.971963
0.880613
0.635525
0.207641
0.235167
0.265384
0.733854
0.542048
0.959684
0.648638
0.564966
0.212424
0.432286
0.754982
0.53931
1.14376
1.0727
0.432713
0.463211
0.508572
1.47803
0.899164
0.947772
0.645157
0.400076
0.970765
1.07787
0.461858
0.343549
0.255335
0.944615
0.80776
1.03169
1.31866
0.600927
0.889622
0.893394
0.262072
0.662688
0.737211
0.288438
0.281344
0.999629
0.798557
0.815242
1.14926
0.817044
0.860252
0.309433
0.285119
0.663689
0.315507
0.485328
0.509062
0.455888
0.492807
0.448823
0.389898
0.410818
0.470415
0.365553
0.342221
0.311906
0.315867
0.364043
0.292223
0.289989
0.338817
0.333284
0.0766206
0.0873649
0.0930234
0.0917576
0.0901833
0.102013
0.0834933
0.0970098
0.0773668
0.0760954
0.0813346
0.10358
0.0819382
0.0964252
0.0866162
0.0948076
0.0855752
0.0850059
0.0875036
0.118625
0.102027
0.0890075
0.0749602
0.0577664
0.0499206
0.051268
0.049192
0.0221036
0.0156871
0.041987
0.0337587
0.0116331
0.0091847
0.0222521
0.0208224
0.00713541
0.0206751
0.0125795
0.0163516
0.017936
1.41978
1.14328
1.20062
1.33197
1.13732
1.29545
1.86649
1.10319
1.17943
1.67531
1.10129
1.04655
1.19725
1.10845
2.74283
1.34188
1.98524
0.122792
0.0211287
0.136277
0.675099
0.543122
0.0271777
0.0899599
0.0806926
0.0116667
0.261784
0.381118
0.662617
0.132402
0.126608
0.460853
0.663724
0.0754667
0.0855921
0.0848968
0.0853426
0.128724
0.192178
0.0954952
0.911724
0.736788
0.142996
0.137208
0.281669
0.485277
0.780762
0.520367
0.614394
0.62884
0.776818
1.22499
1.6281
1.03726
1.49455
0.325136
0.638634
0.29192
0.0372412
0.0320586
0.0379933
0.0308284
0.0164192
0.0323413
0.024458
0.0219163
0.0289498
0.0338445
0.0297149
0.0276899
0.0228289
0.0282177
0.145756
0.16764
0.0965189
0.105733
0.227435
0.0898539
0.104311
0.247819
0.348035
0.270552
0.40858
0.178893
0.158056
0.244893
0.0704735
0.514277
0.588287
0.530128
0.91043
0.883951
0.848685
1.13958
1.26356
0.714591
0.56866
1.12296
1.14474
0.910543
1.29295
1.09263
1.02547
1.10309
1.11678
0.0294484
0.0410744
0.0249029
0.0242795
0.0273263
0.0239131
0.0282344
0.0222408
0.0220754
0.017472
0.928836
0.914883
0.664148
1.12446
0.233669
0.193303
0.143059
0.291245
0.531038
0.649806
0.902117
0.930924
0.767398
0.173911
0.192579
0.0668556
0.591319
0.820295
0.179033
0.185602
0.156539
0.187137
0.621744
0.464125
0.539915
0.392174
0.604226
0.637193
0.346798
0.732565
0.635616
0.634151
0.549152
0.680368
0.319511
0.65601
0.629499
0.408362
0.324901
0.56745
0.00696024
0.00685249
0.00651673
0.00699071
0.00662787
0.00633046
0.00670176
0.00656858
0.00614479
0.00644908
0.00627142
0.00653136
0.00674961
0.00654453
0.00628371
0.00601625
0.00612403
0.00591438
0.0062657
0.943476
1.02586
0.735558
0.879146
0.735199
0.736489
0.833915
0.65103
0.710173
0.649105
0.916546
0.998994
1.0021
0.88835
0.749387
0.72359
0.8531
0.919639
0.0277367
0.0289371
0.0242728
0.0220801
0.0370019
0.0310549
0.0358738
0.0302541
0.0280226
0.0471964
0.0354747
0.0368793
0.0370076
0.044447
0.0597944
0.0571481
0.00401491
0.00411802
0.00410775
0.00403322
0.00406627
0.0040088
0.00399162
0.00394791
0.00397477
0.00396675
0.00397629
0.00392874
0.0039863
0.00460193
0.00456554
0.00468509
0.00467107
0.00460077
0.0044746
0.00496099
0.00471767
0.00508463
0.00476169
0.00488098
0.00486597
0.00479903
0.004949
0.00463996
0.00427037
0.0048342
0.00404888
0.00447123
0.00456566
0.00224116
0.00407586
0.00427015
0.00445444
0.0044306
0.0045588
0.00372329
0.00430721
0.00425736
0.00430791
0.00377748
0.0088293
0.00882481
0.00860855
0.00800656
0.00814125
0.0084655
0.007877
0.00791411
0.00822991
0.00831152
0.00998181
0.0098206
0.00840099
0.00801997
0.00826643
0.00832022
0.00976537
0.00867546
0.00888283
0.00869248
0.683694
0.669916
0.614715
0.408307
0.543273
0.495381
0.679391
0.572337
0.656283
0.32117
0.344602
0.6076
0.489177
0.574725
0.661614
0.938295
0.621706
0.753837
0.834172
0.904272
1.02078
0.741549
0.862401
0.936761
0.906047
1.07811
1.2185
1.02391
0.51514
0.465643
0.530395
1.04217
1.03345
0.0116722
0.0108932
0.0109285
0.00960876
0.012417
0.0110858
0.0096311
0.00949967
0.0102606
0.0109197
0.00879967
0.00872127
0.00858323
0.00924229
0.0097535
0.273924
0.171183
0.147783
0.1397
0.310179
0.155777
0.227001
0.297022
0.347632
0.00809395
0.0085095
0.0074905
0.00751235
0.00817553
0.00736724
0.00727992
0.00771713
0.00703383
0.00679932
0.00683888
0.0066831
0.00702963
0.00786612
0.00735222
0.00685814
0.00691667
0.00715315
0.00781872
0.00818744
0.00697174
0.007171
0.00275823
0.00386759
0.00242441
0.00287776
0.00392733
0.00717831
0.00327076
0.00256391
0.00224416
0.00276814
0.00244731
0.00280794
0.00321477
0.00184459
0.00244981
0.00280113
0.00269089
0.00577045
0.00319432
0.00801632
0.004086
0.00400003
0.00383174
0.00420249
0.0048062
0.00414604
0.00442166
0.00467146
0.0043064
0.00400906
0.0038616
0.00373306
0.00376421
0.00428004
0.0041864
0.00458529
0.00443164
0.00439502
0.00410226
0.00428827
0.00405613
0.00463941
0.00376916
0.00406326
0.00430188
0.00371315
0.017491
0.0378963
0.0316873
0.0240847
0.00677047
0.0179653
0.000341097
0.000837849
0.0292338
0.00484467
0.0337542
0.0216028
0.0188907
0.00170316
0.00373956
0.0138255
0.00522049
0.00662719
0.00135844
0.0038354
0.00413248
0.00477194
0.00434215
0.0144054
0.00489179
0.00731939
0.00625857
0.00645803
0.00601466
0.0064068
0.00755547
0.00601434
0.00621074
0.0209489
0.0105641
0.0130408
0.0170956
0.00851858
0.0112651
0.0102602
0.0101483
0.00825392
0.00966942
0.00857114
0.00374915
0.00382844
0.00430242
0.00375228
0.00369653
0.00456494
0.00398573
0.00369916
0.00364471
0.00381044
0.00458829
0.00370162
0.00350162
0.00547824
0.00600267
0.00559939
0.00507444
0.00559515
0.00597751
0.00641769
0.00578267
0.00554332
0.00558092
0.00550003
0.00601359
0.00569617
0.286793
0.196772
0.247119
0.280971
0.229156
0.205079
0.229733
0.24683
0.253975
0.333255
0.356236
0.306893
0.330746
0.017525
0.0106703
0.0120618
0.010719
0.0106674
0.0172628
0.0104097
0.0173476
0.0106948
0.00984771
0.0101751
0.00855206
0.00714503
0.00634049
0.00954912
0.0150449
0.0101779
0.0138833
0.0154474
0.0225328
0.0107951
0.00769047
0.0350306
0.0299107
0.0746998
0.0181035
0.0333963
0.0159857
0.0140528
0.0290958
0.0176123
0.0159415
0.021135
0.0130041
0.0195379
0.0136894
0.0295491
0.0157873
0.00989687
0.010584
0.0261898
0.0140693
0.011539
0.0140499
0.0173901
0.936062
1.0308
0.932153
0.678534
0.893981
0.797013
0.923874
0.864656
0.838672
0.89519
0.898377
0.00397752
0.00385992
0.00411486
0.00428498
0.00441966
0.00406107
0.00426501
0.00411246
0.00429652
0.00430641
0.00407418
0.00409395
0.00417659
0.00252576
0.00805337
0.000345099
0.0386459
0.00378925
0.00617666
0.00435197
0.00459536
0.00606015
0.00773173
0.00450842
0.00546358
0.00554192
0.00499315
0.0107136
0.00422188
0.00521881
0.00511685
0.00856482
0.00448155
0.00494766
0.00474455
0.00357259
0.00382768
0.00306419
0.0021169
0.00464867
0.0033667
0.00345994
0.00457859
0.00350069
0.00377629
0.00397559
0.0037955
0.00386828
0.00350815
0.00334277
0.0037896
0.00385162
0.00396516
0.0039269
0.0042504
0.00419092
0.0040326
0.00393445
0.00395947
0.00400456
0.00401216
0.00395825
0.00451572
0.00411796
0.00411555
0.0158828
0.0146078
0.0185487
0.0129939
0.0132511
0.0171455
0.0186977
0.0151657
0.0173644
0.0161052
0.0132935
0.0174585
0.0142783
0.000558744
0.00433017
0.00418576
0.00218181
0.00304713
0.00353167
0.00335591
0.00400772
0.00375042
0.00361178
0.0035707
0.00206473
0.00457108
0.00349973
0.00393846
0.00283636
0.00499969
0.00238993
0.00713517
0.00760484
0.00229968
0.0105801
0.0154558
0.0102162
0.0100747
0.019377
0.0167249
0.0134288
0.0253916
0.0270468
0.0206961
0.0268798
0.031897
0.0197537
0.0219399
0.023972
0.0274535
0.0198729
0.0271688
0.183269
0.638883
0.193791
0.284545
0.234648
0.422897
0.0544342
0.0707969
0.450515
0.05822
0.206873
0.646022
0.239815
0.133114
0.213309
0.145584
0.0433504
0.213672
0.254255
0.0643122
0.327849
0.198095
0.0860969
0.0436144
0.204998
0.279901
0.297662
0.00753186
0.019011
0.0204014
0.000244303
0.008264
0.696998
0.0392098
0.587604
0.161401
1.16298
0.106837
1.19782
2.26507
1.7502
0.974024
1.86129
2.21405
0.897036
1.5662
0.358053
1.17475
0.90627
0.481657
0.66051
0.799863
0.495149
0.515735
1.05502
0.797431
0.428757
0.331351
0.752602
0.646888
0.348561
0.364042
0.65623
0.647108
0.470672
0.0436113
0.0799693
0.125543
0.11249
0.0724567
0.13112
0.0576093
0.19306
0.0206422
0.0413276
0.344079
0.513264
0.334747
0.412015
0.2311
0.0909504
0.111966
0.144305
0.380535
0.105968
0.336025
0.389701
0.210239
0.185051
0.206939
0.1438
0.17621
0.282543
0.49446
0.416627
0.0835544
0.278423
0.455146
0.286233
0.0456107
0.00376045
0.0336609
0.0267382
0.00292376
0.00176381
0.0330589
0.00813758
0.0232176
0.0293759
0.0318887
0.0300585
0.00371245
0.00140362
0.00303434
0.00581102
0.0125757
0.0124463
0.808493
1.18247
1.08469
1.22212
1.46787
1.06195
2.08253
0.163994
1.86223
0.789404
0.308374
0.090717
0.304706
0.469008
1.07999
0.173664
1.23533
0.825914
0.214238
0.364588
0.0243235
0.231667
0.00288922
0.00298701
0.00213423
0.00222807
0.00286283
0.00280581
0.00286328
0.00267242
0.00280547
0.00310898
0.00270318
0.00272978
0.00255298
0.0025755
0.00258312
0.00247394
0.00261834
0.00280977
0.0026831
0.00256429
0.00799401
0.0257328
0.0788154
0.00426095
0.00126017
0.00299273
0.0852501
0.000585649
0.0186459
0.00363865
0.00371573
0.0263263
0.00354839
0.00361274
0.0256747
1.96759
2.8301
2.11193
3.14965
2.98494
2.64828
3.18239
1.79633
0.0111881
0.00805393
0.0218013
0.0190912
0.0197948
0.00572129
0.0100622
0.00529285
0.0191467
0.0145476
0.00580184
0.0140181
0.0813426
0.117859
0.969344
0.36374
0.0881843
0.160356
0.892894
0.672056
0.877331
0.92773
1.3128
0.678872
1.08287
1.70997
0.520782
0.201841
0.205729
0.284783
0.00236656
0.00519955
0.00602819
0.00737805
0.00688605
0.00228212
0.003011
0.00570747
0.00513296
0.00647636
0.0095957
0.00449641
0.00382565
0.00714308
0.00369058
0.00853215
0.0103253
0.00483519
0.0421235
0.0434361
0.0670326
0.0706629
0.0576272
0.0641455
0.0334029
0.0419967
0.0490127
0.077998
0.0666122
0.0452039
0.0968823
0.0460671
0.0661677
0.0687035
0.0637644
0.0421924
0.0409442
0.067355
0.0682022
0.0375495
0.014549
0.0131862
0.0150977
0.017737
0.0139145
0.0167903
0.0146711
0.013078
0.0156648
0.0174726
0.0172497
0.0157955
0.0155468
0.0144145
0.0157438
0.0140272
4.24422
3.62153
3.46088
4.37242
3.30244
3.26545
2.22608
1.66888
1.0291
1.01592
1.11119
1.13022
2.31506
1.07532
1.32908
1.21907
1.5034
1.8128
0.0649317
0.134903
0.120197
0.0656026
0.034241
0.0206687
0.0579125
0.0718252
0.08645
0.0699436
0.0373752
0.0316414
0.0269767
0.0301468
0.0535706
0.0376064
0.00794433
0.00448173
0.00283096
0.00281825
0.00403274
0.0029791
0.00300744
0.00305763
0.00228076
0.00209577
0.011514
0.00858642
0.0158441
0.000619506
0.00266012
0.00220529
0.00245685
0.00268652
0.00629708
0.0123789
0.461512
0.453431
0.37041
0.209929
0.0527864
0.217656
0.015728
0.164211
0.219661
0.343409
0.0599626
0.0485459
0.121622
0.14284
0.0716462
0.085214
0.0434908
0.039094
0.0243368
0.0692886
0.0372521
0.0662724
0.010811
0.0489571
0.0157527
0.00873001
0.0113289
0.0089586
0.239708
0.167036
0.0999831
0.200637
0.296902
0.0601658
0.0423131
0.179509
0.197222
0.175469
0.0450505
0.0326559
0.101181
0.126116
0.0771925
0.0535574
0.0862131
0.037141
0.0338175
0.00576797
0.0402581
0.0390153
0.0438682
0.0422342
0.0275336
0.0331191
0.0159579
0.0140151
0.0195763
0.0128681
0.0472778
0.0462233
0.0240989
0.0386543
0.03544
0.0388088
0.0538787
0.0199227
0.00517033
0.0701235
0.0565692
0.0210557
0.0218209
0.0452045
0.000436344
0.00155586
0.0040689
4.12777e-07
0.00216501
0.00213284
0.000346689
0.00262737
0.012654
0.0318582
0.0256492
0.00603752
0.0057871
0.0125624
0.00904694
0.011492
0.00765042
0.00836966
0.00326052
0.0049159
0.000590834
0.00927682
0.00905164
0.00498463
0.00466272
0.00498985
0.00500218
0.00459697
0.0047616
0.00505534
0.00486004
0.00485169
0.00482297
0.00496271
0.00472646
0.00457872
0.00477971
0.0120705
0.0124046
0.016716
0.0162462
0.0171399
0.0172744
0.0119638
0.0106778
0.0142585
0.0151537
0.0123704
0.0153337
0.0132153
0.0138137
0.043643
0.0486527
0.0498448
0.0572756
0.115994
0.115882
0.12796
0.138606
0.0467624
0.08674
0.0800812
0.0823507
0.11555
0.0809593
0.0712093
0.377192
0.452848
0.0399842
0.0523793
0.137885
0.390195
0.485027
0.00262862
0.0550803
0.0277937
0.0608802
0.135966
0.0355458
0.0559858
0.0255881
0.00800378
0.0392435
0.590655
0.825958
0.730749
0.570167
0.468953
0.491365
0.547315
0.590055
0.461735
0.439225
0.707798
0.516451
0.541154
0.457696
0.414715
0.532428
0.530331
0.540575
0.593035
0.560554
0.557071
0.540226
0.157881
0.159962
0.201246
0.225488
0.236881
0.412803
0.131485
0.141808
0.134582
0.232393
0.118594
0.0910217
0.336937
0.272455
0.222391
0.110033
0.169794
0.0824839
0.064537
0.218729
0.201539
0.206189
0.148653
0.21674
0.0597799
0.154029
0.0677321
0.205758
0.244719
0.15098
0.1859
0.357677
0.361287
0.172189
0.260814
0.359746
0.407158
0.396331
0.318631
0.276161
0.27028
0.273699
0.293539
0.135768
0.185231
0.341413
0.205082
0.196322
0.216503
0.00356812
0.00375363
0.003931
0.0035868
0.00334156
0.00369463
0.00333794
0.00337965
0.00362601
0.00339279
0.00335673
0.00333864
0.00338564
0.00340923
0.00336139
0.00335527
0.0033566
0.00336193
0.00331346
0.00337076
0.00014515
0.0119999
0.00439153
0.00582513
0.0278334
0.0103709
0.00550977
0.0188461
0.00708139
0.00557648
0.00382047
0.0350661
0.00662626
0.00610283
0.00603332
0.00602896
0.0066747
0.00623145
0.00689593
0.00693573
0.00642839
0.00621253
0.00612527
0.00621582
0.00601188
0.00693923
0.00671987
0.0408164
0.0502153
0.0449227
0.0456829
0.230629
0.195113
0.159238
0.162655
0.20511
0.0569169
0.082308
0.0309294
0.0359971
0.13594
0.0976535
0.0772457
0.0952315
0.0898599
0.139768
0.110657
0.0846048