/*--------------------------------*- C++ -*----------------------------------*\
  =========                 |
  \\      /  F ield         | OpenFOAM: The Open Source CFD Toolbox
   \\    /   O peration     | Website:  https://openfoam.org
    \\  /    A nd           | Version:  10
     \\/     M anipulation  |
\*---------------------------------------------------------------------------*/
FoamFile
{
    format      ascii;
    class       volScalarField;
    location    "10";
    object      nut;
}
// * * * * * * * * * * * * * * * * * * * * * * * * * * * * * * * * * * * * * //

dimensions      [0 2 -1 0 0 0 0];

internalField   nonuniform List<scalar> 
75457
(
0.0602295
0.066014
0.0527713
0.0225392
0.0604556
0.0239515
0.0626319
0.0197678
0.0289736
0.028448
0.0267892
0.043939
0.0564865
0.0206293
0.0355023
0.0307308
0.00843445
0.020521
0.0259524
0.00629471
0.0131402
0.0102188
0.0333867
0.0345941
0.0215323
0.0385293
0.0389776
0.0395641
0.0367568
0.0503999
0.0353827
0.0442569
0.0439633
0.0241816
0.0220852
0.0286241
0.0244136
0.0443357
0.0420781
0.0271802
0.0288555
0.025986
0.0268592
0.0126461
0.0196284
0.00699968
0.00507168
0.0104383
0.0965932
0.0536856
0.0766983
0.0941743
0.0890326
0.0788792
0.0573327
0.059461
0.122482
0.105758
0.100103
0.0150094
0.0894406
0.100436
0.0519407
0.0445909
0.00794627
0.0412194
0.0132587
0.0453391
0.0570073
0.0116201
0.0565667
0.0126695
0.0467963
0.00371383
0.0561895
0.0180964
0.0180159
0.152745
0.144936
0.192663
0.104666
0.117632
0.168149
0.201949
0.139536
0.170352
0.186613
0.143166
0.167167
0.101887
0.217721
0.21351
0.133168
0.172627
0.160043
0.0985109
0.0980633
0.101214
0.0141413
0.122605
0.0952654
0.112676
0.00514474
0.00136269
0.00101358
0.00135647
0.00897353
0.00217325
0.0101642
0.0427185
0.0665311
0.008125
0.00790539
0.0519704
0.0134471
0.0846796
0.0116734
0.0496014
0.052111
0.0137078
0.00310492
0.0106913
0.0114557
0.0289275
0.0590195
0.0356908
0.00737765
0.0682323
0.0740355
0.0129234
0.0246885
0.13059
0.0417714
0.0966697
0.155969
0.0566883
0.0512613
0.136248
0.124278
0.00990391
0.0304325
0.0491086
0.0692356
0.0347812
0.0412431
0.108991
0.0826799
0.0636195
0.0682146
0.137704
0.0109544
0.118088
0.0546487
0.0474681
0.0684622
0.0708774
0.147786
0.00797051
0.0775915
0.124918
0.00761779
0.0582699
0.123413
0.000864952
0.00086846
0.000861232
0.000877999
0.000872339
0.000869049
0.00086492
0.000855841
0.000885154
0.000849479
0.000866811
0.000869877
0.000868482
0.0787749
0.0919194
0.115626
0.0960187
0.208532
0.00724026
0.180594
0.0751312
0.00871075
0.101916
0.19119
0.0890353
0.0755795
0.0173261
0.120295
0.0720185
0.0965505
0.0705685
0.0686111
0.013716
0.0267359
0.0539453
0.0465702
0.0323791
0.0238776
0.0768749
0.0830116
0.00801117
0.0762327
0.0730343
0.0694481
0.129621
0.11698
0.116718
0.106848
0.104575
0.01283
0.0133131
0.111133
0.0931659
0.014496
0.103447
0.0146155
0.0153512
0.0632982
0.10701
0.0775692
0.00977725
0.0834858
0.083787
0.0138768
0.0675866
0.10617
0.00730005
0.0460508
0.0442578
0.0635054
0.0790186
0.0913553
0.105359
0.121131
0.0894914
0.090686
0.0920581
0.0893331
0.113466
0.00934062
0.124726
0.073462
0.0935488
0.103901
0.118995
0.103927
0.0123894
0.102802
0.00963289
0.0710872
0.0105782
0.091321
0.0072833
0.0662246
0.0300877
0.0433133
0.00931616
0.0331924
0.0364156
0.0930568
0.0587488
0.0907603
0.0174355
0.0902069
0.0157104
0.0159088
0.0700583
0.0120503
0.0787384
0.136597
0.1324
0.088342
0.124128
0.0923064
0.0776105
0.0110922
0.0835424
0.111941
0.00956045
0.0994092
0.00857158
0.103715
0.00786952
0.100617
0.0663353
0.0756047
0.090755
0.081723
0.0862744
0.145541
0.00934736
0.0682115
0.0122527
0.0693445
0.107583
0.109724
0.0105145
0.115202
0.0524221
0.0239002
0.089762
0.071314
0.197559
0.0062678
0.107413
0.148888
0.011977
0.219148
0.0968334
0.0746464
0.0777949
0.0590103
0.050825
0.0497579
0.0643547
0.0533097
0.0213049
0.0430334
0.073387
0.0541852
0.0209628
0.00947084
0.112111
0.0952328
0.088328
0.121571
0.0845205
0.0547636
0.0576746
0.0981294
0.00837761
0.0947698
0.0964507
0.134728
0.13849
0.0123749
0.109748
0.127246
0.0112354
0.0972866
0.0898036
0.0373382
0.0748109
0.0736348
0.106806
0.0318103
0.146113
0.113952
0.031621
0.114091
0.114708
0.115091
0.144506
0.128948
0.0208405
0.104295
0.133223
0.0179441
0.0135717
0.0193345
0.0129691
0.0846473
0.086761
0.0813127
0.0907846
0.0920442
0.0875201
0.099192
0.0940226
0.0942161
0.101414
0.0134634
0.0859167
0.0859063
0.120991
0.00867245
0.0804878
0.0683984
0.0675573
0.0144343
0.021997
0.0682244
0.287849
0.100543
0.122443
0.0689231
0.0696
0.0932757
0.000891594
0.00092568
0.000850944
0.000848367
0.000911844
0.0009221
0.000883264
0.000935635
0.000886538
0.000921042
0.000836445
0.00083935
0.000839601
0.000867244
0.000849533
0.000840007
0.000815569
0.000840629
0.000896133
0.000901927
0.000857591
0.000816977
0.00079378
0.000802003
0.00086794
0.000857512
0.000856253
0.000799368
0.000789612
0.000826522
0.000840942
0.000911343
0.000904326
0.000850695
0.000847914
0.000885182
0.000869277
0.00085349
0.000853267
0.000910402
0.000900955
0.000876191
0.000895594
0.000868788
0.000860936
0.000858044
0.000856445
0.000892786
0.000916853
0.00086186
0.000883262
0.000892541
0.000873058
0.0509489
0.025193
0.0265154
0.0243287
0.0259511
0.0443987
0.0226444
0.0277915
0.0195397
0.0483925
0.0202781
0.0191785
0.0207484
0.0212929
0.0177115
0.047379
0.0444282
0.037906
0.0529592
0.0239197
0.0317839
0.0327166
0.0588461
0.0270966
0.0317926
0.0302282
0.0449555
0.0362129
0.0544299
0.0306636
0.0272368
0.00885424
0.00359078
0.00530494
0.0206074
0.0194185
0.0127903
0.00500572
0.00489808
0.00497613
0.00613726
0.00376936
0.0121783
0.0191697
0.0187652
0.0225396
0.05313
0.0243127
0.0153999
0.0150835
0.000877544
0.00087973
0.000891245
0.000886454
0.000876483
0.000915667
0.000917458
0.000835342
0.000865913
0.000904418
0.000903468
0.000950682
0.000910916
0.000866203
0.000861451
0.00086621
0.000842601
0.000839208
0.000841057
0.000844751
0.00084517
0.000835921
0.000852947
0.000847198
0.000846299
0.000847727
0.000859506
0.000847521
0.000850913
0.00084908
0.000854807
0.000863016
0.000853642
0.000944078
0.000978329
0.000964131
0.00100813
0.00101025
0.000989737
0.000735939
0.00147194
0.000930044
0.00101959
0.00085258
0.000982779
0.000954183
0.00099112
0.000921719
0.000965579
0.000757242
0.0853947
0.0826122
0.0821995
0.0784974
0.0889725
0.0886077
0.110048
0.0991724
0.0928514
0.0964489
0.0842885
0.0802796
0.107662
0.10115
0.112129
0.0894839
0.0853358
0.0896253
0.021559
0.023459
0.0283505
0.0346174
0.0145198
0.0387829
0.0231624
0.0252691
0.0270778
0.0446913
0.0297084
0.0292658
0.0288947
0.0163225
0.0449531
0.0419463
0.0567133
0.0398774
0.0595569
0.0588016
0.0605645
0.0434571
0.0401522
0.0603463
0.0612013
0.0612175
0.0453549
0.0323964
0.0321242
0.058044
0.0415929
0.0569336
0.000919212
0.000920195
0.000921175
0.000982673
0.0010339
0.000920571
0.000890633
0.000963697
0.000945036
0.000946252
0.000853023
0.00102696
0.0887431
0.0654786
0.105474
0.054008
0.097503
0.0799696
0.0857049
0.0860422
0.097589
0.0353908
0.0233506
0.0278035
0.0265285
0.0219736
0.0269357
0.0263219
0.00610682
0.0190741
0.00472419
0.0164638
0.0319567
0.0285053
0.0330704
0.0279946
0.02506
0.0176612
0.0133683
0.00682836
0.0276745
0.0128269
0.0159745
0.016711
0.00162233
0.000417834
0.010908
0.00191366
0.000525976
0.0151943
0.0116761
0.00309447
5.85009e-05
0.000828028
0.000256481
0.000540546
0.000909426
0.000784316
0.00207131
0.0152587
0.013979
0.0135754
0.00434522
0.051334
0.0414024
0.0306212
0.0659492
0.0402808
0.0534465
0.0433484
0.0245469
0.0396585
0.0249472
0.0610384
0.051467
0.044841
0.0453211
0.0983252
0.107206
0.0957093
0.0966997
0.0976181
0.0970676
0.0784055
0.0856823
0.100338
0.0739491
0.0767656
0.108212
0.0832787
0.0766912
0.080338
0.0765676
0.0763911
0.0783039
0.0404473
0.0677458
0.0742617
0.00789557
0.0219476
0.0604556
0.03743
0.00699895
0.019044
0.0806006
0.0668049
0.163481
0.162494
0.167052
0.0890621
0.10689
0.160004
0.162661
0.119629
0.155852
0.153695
0.158421
0.121442
0.12582
0.160922
0.132651
0.166194
0.162314
0.156699
0.163281
0.109651
0.131943
0.0131438
0.00982638
0.0288184
0.0213204
0.0244
0.0113634
0.0190744
0.0188524
0.0180314
0.0466738
0.0536932
0.0616559
0.0101944
0.0545691
0.0727484
0.0443272
0.0605238
0.0102041
0.0341321
0.035467
0.0264541
0.0205603
0.0277275
0.0536377
0.0315197
0.0192499
0.0443686
0.0231098
0.192902
0.210723
0.194045
0.156698
0.170324
0.173428
0.168041
0.153685
0.153203
0.176324
0.15967
0.166041
0.157225
0.025454
0.0299757
0.00929087
0.0115704
0.00999184
0.00910118
0.0145439
0.017654
0.0461775
0.0204863
0.0323179
0.034619
0.0108844
0.0107251
0.0332735
0.0201351
0.033774
0.0330918
0.0254102
0.0395166
0.0460473
0.0218107
0.0251279
0.00957427
0.0358332
0.0128992
0.0100785
0.0411187
0.03902
0.00848385
0.0279629
0.0329824
0.0274201
0.0258541
0.0399542
0.0127451
0.0203373
0.0543533
0.0360229
0.0175807
0.00251303
0.0060511
0.0377077
0.0566363
0.0197873
0.0203385
0.0423717
0.0529874
0.0203093
0.0230012
0.0305812
0.0233453
0.0238013
0.0392746
0.0423296
0.052076
0.0250559
0.0247519
0.033647
0.0538525
0.0266805
0.0200621
0.0351831
0.020345
0.0571764
0.0481671
0.00752073
0.0130099
0.0195557
0.0248906
0.0125848
0.0153882
0.0289719
0.0550355
0.0683113
0.0557869
0.0170799
0.0264252
0.0142592
0.0452428
0.0325726
0.00982141
0.00926981
0.00864222
0.00971449
0.0102414
0.00844994
0.00758551
0.00709322
0.00696398
0.00814504
0.00875306
0.00670501
0.00839462
0.00904294
0.000855495
0.000794811
0.000808641
0.000857919
0.00083745
0.000814013
0.000830802
0.000848493
0.000897391
0.000899795
0.0420266
0.0317184
0.0450314
0.0543518
0.0224336
0.0201198
0.0518363
0.0625058
0.0269122
0.0441736
0.0442155
0.0449067
0.0489042
0.0187919
0.0485678
0.0438992
0.0130944
0.107027
0.110338
0.10833
0.170809
0.162422
0.13524
0.15321
0.151484
0.162352
0.177149
0.0994181
0.101044
0.118617
0.112163
0.14411
0.163571
0.157785
0.111393
0.115806
0.123512
0.000494338
0.000758776
0.000776563
0.000453304
0.000969484
0.00559842
0.0059578
0.00111306
0.000770226
0.000707951
0.00577103
0.0071492
0.000423892
0.00371548
0.00475474
0.00791793
0.200148
0.27336
0.34596
0.30118
0.145319
0.232315
0.143117
0.207365
0.271419
0.274623
0.156252
0.194605
0.231272
0.0384326
0.0520731
0.0478717
0.031349
0.028723
0.0319628
0.0476851
0.04243
0.0347496
0.0335093
0.0217434
0.0340369
0.010786
0.0275039
0.0237821
0.0140247
0.0291529
0.0267809
0.0132912
0.0122155
0.0118228
0.0142557
0.000355204
6.56899e-05
0.000696882
0.000413038
0.000332722
0.00681019
0.026186
0.001048
0.00979189
0.0538129
0.0616671
0.0344997
0.0321649
0.0369731
0.0133385
0.0403699
0.0439919
0.0365008
0.0168103
0.0165538
0.0348044
0.00820264
0.0202147
0.0178311
0.0147651
0.0148107
0.0211607
0.0134785
0.148501
0.111007
0.128707
0.125589
0.110275
0.130842
0.0915299
0.174918
0.129589
0.161734
0.164535
0.176093
0.174091
0.143928
0.165049
0.106204
0.0155906
0.0333361
0.0283327
0.0167747
0.00249524
0.00455922
0.00588203
0.0025708
0.00235789
0.00218568
0.0201652
0.0140077
0.00401424
0.000379446
0.00610067
0.00484843
0.0219282
0.13823
0.0871328
0.123727
0.024459
0.118147
0.08586
0.0642017
0.0783662
0.0786441
0.0837887
0.105073
0.155857
0.167294
0.0902333
0.0966919
0.0980959
0.097411
0.0857779
0.162293
0.00201704
0.0012114
0.00100454
0.000918764
0.00115417
0.000814861
0.000848576
0.000908548
0.000961263
0.00202564
0.00224851
0.00125179
0.00116053
0.00084686
0.00219832
0.0123726
0.013689
0.0227214
0.0311319
0.0386136
0.0360901
0.0400397
0.0186657
0.0520796
0.0655103
0.0599199
0.033002
0.0698987
0.0669613
0.00713858
0.0113686
0.00537265
0.00656889
0.00598371
0.00866596
0.0041021
0.00219275
0.00883513
0.00223154
0.00533485
0.00218623
0.00321885
0.00198365
0.00170227
0.0019181
0.0309304
0.0329499
0.0270369
0.0270144
0.0617409
0.062225
0.0188325
0.0417032
0.0397607
0.0232899
0.06272
0.0526715
0.0643188
0.0508537
0.0541975
0.0632105
0.066705
0.0645047
0.0629878
0.00487241
0.0165136
0.00820217
0.00955403
0.00538968
0.0325603
0.0116097
0.0176356
0.0206541
0.0159917
0.00510419
0.00658904
0.00751866
0.00607202
0.0227496
0.0193876
0.0170276
0.0365063
0.0272396
0.0315937
0.0143454
0.0209267
0.0383859
0.0263849
0.0220107
0.00192194
0.00165335
0.00146114
0.00959804
0.000527192
0.00086059
0.00344198
0.00302431
0.00164091
0.00148286
0.00342309
0.00387816
0.00162472
0.00311974
0.00112269
0.000877709
0.000910048
0.00103276
0.00416259
0.00108487
0.00743135
0.00676465
0.0054741
0.0103748
0.0080275
0.00782693
0.020945
0.00761487
0.0205763
0.0235945
0.0185739
0.0131899
0.109809
0.162012
0.0137377
0.163321
0.0688725
0.10093
0.0699713
0.00985981
0.0115194
0.0918889
0.0815197
0.0775968
0.0131119
0.0955201
0.0962728
0.0769532
0.0971198
0.0862962
0.0870394
0.0904928
0.0912811
0.0891977
0.0861541
0.0905535
0.0910686
0.0993391
0.0151525
0.0906432
0.0173084
0.0908391
0.0896904
0.0897256
0.0846687
0.0888458
0.110803
0.102812
0.10821
0.0217507
0.0383172
0.013159
0.0219048
0.0139127
0.0106333
0.00689002
0.0154705
0.00955825
0.00886886
0.00899929
0.0079486
0.00816418
0.00848939
0.00859639
0.00623687
0.127831
0.081718
0.0969893
0.11644
0.0662383
0.0805357
0.142362
0.0861733
0.0564728
0.112896
0.0947568
0.123052
0.0532653
0.101665
0.016866
0.100513
0.0141353
0.0633613
0.0246684
0.0968621
0.0216018
0.11527
0.0757468
0.0830656
0.0931945
0.0711952
0.113616
0.0143872
0.105603
0.0445954
0.0784738
0.0844994
0.0158438
0.0793708
0.111352
0.10201
0.106372
0.0927613
0.0718636
0.1527
0.00996151
0.0542868
0.0677475
0.0142485
0.06698
0.0854028
0.0504545
0.120091
0.0154438
0.133204
0.0679668
0.0980196
0.0132453
0.0823119
0.0576235
0.0998267
0.0597599
0.0937711
0.0149399
0.0949577
0.0630984
0.0677541
0.084048
0.0887723
0.0702985
0.066941
0.0751205
0.0693088
0.0414857
0.0555879
0.0488765
0.0714542
0.0724578
0.0304672
0.0347006
0.0362438
0.0624873
0.0761645
0.0480551
0.0544577
0.0351313
0.0658551
0.0680913
0.0192256
0.0213976
0.0108557
0.00894265
0.0101709
0.0115795
0.0258484
0.0245187
0.0123073
0.0160081
0.0116708
0.0697432
0.0832134
0.053985
0.000912618
0.000903095
0.000915187
0.000963096
0.000909779
0.000883628
0.00329384
0.00361725
0.00549796
0.00290038
0.000129982
0.00099696
0.00138228
0.00081294
0.00253895
0.00236432
0.00717449
0.00245172
0.000566713
0.0006838
0.0360305
0.053772
0.0578864
0.043131
0.0269668
0.0350859
0.0222572
0.0100131
0.048115
0.0644768
0.0526746
0.0199641
0.0227014
0.0111831
0.031893
0.0297314
0.0321191
0.0375818
0.0326335
0.00565001
0.00297215
0.00444437
0.00370122
0.0415313
0.0473756
0.0205194
0.027014
0.0111552
0.00509111
0.029281
0.0106315
0.00587121
0.0271059
0.0457404
0.0259151
0.0203915
0.0261322
0.0201535
0.0270746
0.0497851
0.0469427
0.073421
0.0515132
0.071281
0.0895333
0.08866
0.101069
0.0973316
0.10876
0.0838828
0.0737823
0.0950076
0.0833988
0.0957962
0.0838066
0.0648074
0.0593486
0.0820921
0.0994064
0.125513
0.114501
0.155718
0.10451
0.0555865
0.103778
0.14398
0.173777
0.132363
0.115415
0.0673057
0.0783996
0.106141
0.110067
0.0854771
0.000961157
0.00097411
0.00102929
0.00114867
0.000998197
0.000979155
0.00166051
0.000964429
0.00109369
0.000757624
0.000973335
0.000948208
0.00101744
0.0010413
0.00110089
0.00110479
0.00107258
0.00101003
0.000998622
0.00103558
0.0916243
0.10502
0.0768825
0.10017
0.073657
0.0785329
0.0437698
0.0619345
0.0938434
0.0806497
0.0107864
0.101235
0.0520807
0.052537
0.0818297
0.0761391
0.0107407
0.0836155
0.0133495
0.0740625
0.000715927
0.00118833
0.00132978
0.000983346
0.000885748
0.000944415
0.00101609
0.000990196
0.00104068
0.000994248
0.000939838
0.00106833
0.00105234
0.000771059
0.00106378
0.000945403
0.00141949
0.154589
0.0893121
0.140562
0.0127178
0.0908945
0.107363
0.0939168
0.111074
0.0191076
0.107942
0.245191
0.0738656
0.000989284
0.000905552
0.000593865
0.000284129
0.000873231
0.000720017
0.000704689
0.000491792
0.000354063
0.000899812
0.000702465
0.000370292
0.00444012
1.94196e-05
0.00169802
8.08065e-05
0.00241799
0.00811958
7.18749e-05
0.00502415
0.00711817
0.028316
0.0261076
0.00125867
0.00207555
0.0392356
0.030064
0.0416795
0.00160815
0.00385844
0.006248
0.00140193
0.00312001
0.00373535
0.00144027
0.0122422
0.0037004
0.00539063
0.0017951
0.0106397
0.0288032
0.00858255
0.0132604
0.018671
0.0570742
0.003342
0.002828
0.0434742
0.0673667
0.00706083
0.00613373
0.0191426
0.0409814
0.0130395
0.024013
0.0295502
0.0311899
0.0173932
0.0137151
0.0329794
0.0275331
0.0241163
0.0127336
0.00340568
0.0218708
0.01085
0.0100945
0.00334663
0.00460355
0.00721947
0.00907017
0.0158182
0.000617321
0.00129357
0.000856224
0.000836751
0.0207067
0.0195232
0.0028079
0.000334813
0.00156376
0.0113706
0.0205495
0.0207233
0.00159483
0.000457771
0.000704849
0.0188147
0.0108136
0.0630707
0.0514954
0.0177036
0.0572861
0.0451207
0.0332144
0.0162758
0.000317756
0.000164974
0.00208493
0.0073832
0.000657479
0.000960205
0.000971069
0.000442053
0.00148525
0.000961306
0.000933668
0.000978659
0.000975825
0.000569512
0.000556808
0.000890952
0.000911936
0.00103633
0.00077835
0.000743529
0.00103889
0.000832084
0.0152659
0.0120439
0.0118451
0.0205497
0.0126777
0.0396822
0.052876
0.0173619
0.0220245
0.0265131
0.0243992
0.0335702
0.0266038
0.0217221
0.0947005
0.0867475
0.0269693
0.124837
0.0603764
0.0571097
0.0406255
0.0144591
0.0187641
0.0555143
0.0529245
0.0291643
0.0286988
0.0295144
0.0168914
0.0210624
0.0312885
0.0204219
0.0182495
0.0254658
0.015654
0.0100401
0.0263627
0.0369744
0.0267531
0.026247
0.101545
0.111966
0.119407
0.113418
0.0971818
0.112248
0.114195
0.117383
0.0966423
0.114798
0.10545
0.111104
0.124274
0.136603
0.123154
0.121551
0.0896032
0.0843127
0.0859852
0.0907554
0.102794
0.096221
0.10455
0.128491
0.0930136
0.129896
0.0141289
0.0897574
0.0876367
0.0911624
0.10179
0.105223
0.0891863
0.109876
0.0194527
0.0866569
0.0990491
0.0210482
0.10242
0.0203748
0.0956933
0.0926593
0.0851872
0.078658
0.0180542
0.102303
0.0919932
0.0646637
0.0771488
0.105663
0.0693245
0.0962567
0.0931878
0.0656942
0.0642539
0.0581264
0.0990577
0.178445
0.153174
0.159451
0.117747
0.14159
0.130389
0.107262
0.146154
0.14653
0.124234
0.146951
0.151726
0.110633
0.129096
0.0243899
0.123051
0.109679
0.107826
0.0206705
0.0970292
0.120146
0.105849
0.114942
0.0469764
0.0521682
0.0565582
0.0874406
0.0780866
0.131827
0.0937692
0.0869812
0.0506672
0.0699682
0.0994348
0.0704005
0.0106694
0.00991137
0.0679129
0.0719026
0.0737417
0.0137044
0.106737
0.078164
0.0864738
0.120822
0.107858
0.0113883
0.0756012
0.0714531
0.0632332
0.0981245
0.0961884
0.0724831
0.0139652
0.0901074
0.0978358
0.0897513
0.0633263
0.107442
0.126134
0.065188
0.0639226
0.104371
0.0914021
0.0809631
0.0114138
0.117775
0.083641
0.0692738
0.0685209
0.0851014
0.0729093
0.108433
0.11376
0.116182
0.109907
0.101879
0.110485
0.111639
0.103673
0.106788
0.105473
0.0878713
0.0905196
0.113693
0.0935724
0.0900739
0.106804
0.105099
0.0387695
0.0435818
0.0452847
0.0451023
0.04467
0.0473007
0.042725
0.0500132
0.0386807
0.0385819
0.0418821
0.0484841
0.0410161
0.0461827
0.0437354
0.0456442
0.0429616
0.0422523
0.0431078
0.0502038
0.0464714
0.044229
0.0320826
0.0276178
0.0242565
0.025259
0.0268252
0.0130826
0.00962709
0.0226856
0.0173303
0.00721691
0.00568653
0.0124781
0.0114598
0.00443081
0.0122492
0.00755133
0.00970665
0.0107125
0.194448
0.163717
0.137716
0.149107
0.138344
0.148237
0.241431
0.165188
0.158811
0.208539
0.156142
0.146173
0.172123
0.173483
0.238925
0.176795
0.233482
0.0311521
0.00610597
0.0344749
0.0882275
0.085864
0.00784789
0.0239686
0.0215739
0.00353455
0.0566351
0.0761982
0.0933233
0.0434958
0.0426284
0.0888589
0.102581
0.0302203
0.0325161
0.0323799
0.0320223
0.0432065
0.0479744
0.0327341
0.0947637
0.0992059
0.0425809
0.0422172
0.0580945
0.0858207
0.0937159
0.0858047
0.0971224
0.0876874
0.0968328
0.0810126
0.0148848
0.0968905
0.0137201
0.0734027
0.0855927
0.0692291
0.0204461
0.0180242
0.0207889
0.017341
0.00974916
0.0176458
0.0138159
0.0125282
0.0151746
0.0171487
0.0158903
0.0151997
0.0129456
0.015414
0.0449866
0.0528635
0.0342622
0.0378054
0.0566839
0.0346499
0.0375403
0.0651063
0.0791685
0.071434
0.0879182
0.0504482
0.0511547
0.0634782
0.0285275
0.0678311
0.0679771
0.0252979
0.0411816
0.131513
0.0439703
0.213631
0.25667
0.0705869
0.11102
0.158677
0.240333
0.202328
0.165609
0.153765
0.238836
0.180121
0.20702
0.00144427
0.00169443
0.00097215
0.00119076
0.00128412
0.00111234
0.0011908
0.00113299
0.000940385
0.000894272
0.0930336
0.0119153
0.0868711
0.0146526
0.054527
0.0496695
0.0409287
0.0608105
0.0741378
0.0742696
0.0864083
0.0930958
0.0875629
0.0472515
0.0499937
0.02419
0.0743448
0.0863256
0.046507
0.049558
0.0429988
0.0462654
0.143663
0.0720879
0.143248
0.0895143
0.123927
0.0281278
0.0793653
0.215117
0.183995
0.0315853
0.0828929
0.036192
0.0777728
0.203062
0.205427
0.084506
0.0676056
0.151839
0.000870663
0.000870653
0.00087362
0.000873658
0.000872784
0.000869132
0.000873748
0.000871278
0.000866747
0.000865623
0.000876291
0.000871077
0.000867745
0.000869206
0.000878063
0.000887139
0.000872407
0.000877398
0.000866995
0.11992
0.111422
0.0804421
0.100611
0.0623509
0.0562959
0.0890225
0.0993977
0.0617955
0.105605
0.0797148
0.108846
0.107265
0.0633713
0.113211
0.0984499
0.110906
0.0443806
0.000947887
0.000964796
0.000971631
0.000934856
0.000953596
0.00097111
0.000977152
0.000977726
0.000965937
0.00102869
0.000994206
0.000981953
0.000994964
0.00100982
0.00102787
0.00102215
0.000857638
0.00084331
0.000842096
0.000865081
0.000879308
0.000859168
0.000851292
0.000856524
0.000826256
0.000825673
0.000873308
0.000832737
0.000873426
0.000844319
0.000879535
0.000853141
0.00085372
0.000853137
0.000876962
0.000860392
0.000851898
0.000888862
0.000869535
0.00086622
0.000845043
0.000897325
0.000899721
0.000864314
0.000875312
0.000976297
0.000851864
0.000926107
0.000885702
0.000442695
0.000860824
0.000896765
0.000872199
0.000900871
0.000909929
0.000738507
0.000872929
0.00085888
0.000845916
0.000716964
0.000886665
0.000890371
0.000884963
0.000879599
0.000879684
0.000880714
0.000880753
0.000900841
0.00089191
0.00088692
0.000890075
0.000891212
0.000883606
0.000873043
0.000886771
0.000884992
0.000899741
0.000889381
0.00089607
0.000893448
0.0832317
0.0836439
0.0802421
0.0558812
0.0686314
0.0638304
0.079518
0.0725205
0.0742422
0.0483054
0.0486555
0.0706648
0.0663221
0.0708006
0.0767257
0.0984719
0.0706807
0.086757
0.0855586
0.0913903
0.0986844
0.0807001
0.0899085
0.0881509
0.0976252
0.0945122
0.10106
0.089631
0.052072
0.0516233
0.0505445
0.0835638
0.0934018
0.000908786
0.000909194
0.000896518
0.000946897
0.000913279
0.000909309
0.000863024
0.000886501
0.000887608
0.000879177
0.000882723
0.000896411
0.000897285
0.000893555
0.000877304
0.0802838
0.0542099
0.0477183
0.0455764
0.0872234
0.0453231
0.0667579
0.0834837
0.0959281
0.000882208
0.000889055
0.000882879
0.000881838
0.00089338
0.00088198
0.00088094
0.000887107
0.000886385
0.000874359
0.000870207
0.000854013
0.000868274
0.000886274
0.000881198
0.000868502
0.000844713
0.000854022
0.000897856
0.000886358
0.000884863
0.000833273
0.000735052
0.00101589
0.000647223
0.000765925
0.00104011
0.00183342
0.000858441
0.000701973
0.000591414
0.000747511
0.000645489
0.000765372
0.00084476
0.00050849
0.000673586
0.00076294
0.000725232
0.00156722
0.000862878
0.00217749
0.000820816
0.000839159
0.000786758
0.000898927
0.000958391
0.00086984
0.00091265
0.000944825
0.000883341
0.000838514
0.000802869
0.000807357
0.000802112
0.000902981
0.000890891
0.000929896
0.000916269
0.000887396
0.000885321
0.000889404
0.000865384
0.000942312
0.000810099
0.000900909
0.000935914
0.000803906
0.0063288
0.0128268
0.0108635
0.0086465
0.00257628
0.00678115
0.00013853
0.000326023
0.0100669
0.0019195
0.011474
0.00793715
0.00704564
0.000707723
0.00152595
0.00513945
0.00210097
0.00268048
0.000550778
0.00154402
0.00165137
0.00187581
0.00171075
0.00533379
0.00197111
0.00288187
0.00194028
0.00197255
0.00178866
0.00191534
0.00240067
0.00189086
0.00194117
0.00565164
0.00255827
0.00356258
0.00479211
0.00263878
0.00343637
0.00310528
0.00301474
0.00247865
0.00277827
0.00260927
0.000887374
0.000889696
0.000961206
0.000882055
0.000888316
0.00103971
0.000902121
0.000895417
0.000878936
0.000896485
0.00105826
0.00089201
0.000856496
0.000848062
0.000859839
0.000857303
0.000816477
0.000855652
0.000861889
0.000861934
0.00085068
0.000821304
0.000868143
0.000835307
0.000859547
0.00085825
0.0772149
0.0609305
0.0689851
0.0769752
0.0661848
0.0615421
0.0652484
0.0692269
0.0716939
0.0875752
0.0932975
0.083407
0.0874443
0.00705534
0.00481203
0.00542099
0.00479394
0.00473097
0.00702484
0.00426982
0.00702752
0.00475687
0.00440781
0.00440945
0.00367385
0.0031849
0.00282231
0.00417202
0.00673875
0.00466795
0.00623858
0.00668739
0.00970047
0.00477798
0.0033691
0.0142548
0.0122496
0.0277456
0.00785361
0.0139279
0.0068114
0.00604014
0.0120828
0.00746442
0.00625293
0.00834501
0.00523922
0.00791667
0.00547728
0.0115392
0.00621329
0.00402235
0.00434283
0.0103891
0.00543231
0.00461855
0.00556272
0.00669244
0.157909
0.164606
0.147854
0.128754
0.159566
0.149457
0.167731
0.166813
0.162204
0.171033
0.178613
0.000838105
0.000828857
0.000836658
0.000838642
0.000833672
0.000836778
0.000836138
0.000832694
0.000833407
0.000832357
0.000836353
0.000838534
0.000833836
0.000454435
0.00140985
3.13334e-05
0.00470936
0.000375733
0.00115675
0.000738717
0.000843427
0.0010984
0.00134749
0.000978459
0.00108677
0.00105965
0.00102114
0.00179639
0.000936549
0.00106844
0.00102872
0.00156968
0.000930858
0.000966893
0.00097921
0.000732548
0.000775978
0.000652675
0.000456377
0.000993837
0.000691976
0.000676589
0.000911616
0.000670202
0.000781691
0.000784448
0.000842228
0.000846278
0.000812107
0.000767326
0.000839251
0.000828269
0.000855277
0.000840113
0.000855044
0.000842522
0.00086518
0.000858882
0.000838991
0.000829498
0.000841911
0.000846835
0.000934895
0.000854021
0.00086339
0.000927896
0.000924466
0.000939336
0.000914068
0.000913577
0.000933301
0.000942391
0.000925797
0.00093545
0.000930393
0.000917621
0.00093522
0.000913855
0.0001347
0.00102481
0.00105941
0.000541062
0.000745354
0.000910103
0.000875311
0.000997959
0.000929163
0.000917594
0.000920031
0.000486005
0.00110537
0.000907951
0.000965474
0.000700984
0.00110372
0.00058361
0.00152569
0.00169685
0.000568517
0.00443497
0.0064249
0.00427987
0.00413459
0.00794484
0.00694613
0.00541064
0.0102185
0.0110903
0.00873134
0.0106764
0.0125254
0.0083186
0.00903344
0.0100423
0.0113195
0.00807426
0.0109287
0.0431828
0.123248
0.0449019
0.0620455
0.0511709
0.0876073
0.0154666
0.0203783
0.0929614
0.016393
0.0555742
0.121873
0.0622029
0.0371619
0.0582955
0.0413646
0.012333
0.0504683
0.0564605
0.0188383
0.0752216
0.0545748
0.0245149
0.0126628
0.0496742
0.0628867
0.0662269
0.0042609
0.0103692
0.0110377
0.000140598
0.00444561
0.0892816
0.0047643
0.0713239
0.0263698
0.111699
0.0175285
0.101609
0.166223
0.123012
0.08062
0.0846866
0.165828
0.0784685
0.117824
0.0471148
0.177928
0.135012
0.0722482
0.100576
0.147646
0.125848
0.115314
0.17083
0.141603
0.112275
0.0913422
0.119577
0.0997908
0.0909741
0.0985876
0.16056
0.144107
0.106317
0.00881466
0.0125148
0.0169862
0.00957518
0.0073732
0.0101283
0.00436589
0.0120077
0.00402573
0.00938664
0.0180465
0.0163295
0.0155219
0.0117601
0.013152
0.0102863
0.0138986
0.00716455
0.0205432
0.0152566
0.0684943
0.0755065
0.0495309
0.0454928
0.0492645
0.0370774
0.0440644
0.0624285
0.0880324
0.0793594
0.0232955
0.0640668
0.0886275
0.0642394
0.00890636
0.000936466
0.00694945
0.00568381
0.000793757
0.000472721
0.00708979
0.00235414
0.00508405
0.00588032
0.00596032
0.00595916
0.00104994
0.000411221
0.00085308
0.00160929
0.00308896
0.0030932
0.0892478
0.119567
0.111268
0.131637
0.155296
0.112783
0.182697
0.0183975
0.185265
0.0742698
0.0451506
0.013347
0.0439051
0.0586873
0.108476
0.0221185
0.12034
0.0826292
0.0320139
0.0443838
0.00495064
0.0346479
0.000791961
0.000821154
0.000589419
0.00062225
0.000799461
0.000797513
0.000795569
0.000735033
0.000777658
0.000861823
0.000760625
0.000779011
0.000729282
0.000712876
0.000719189
0.000698641
0.000734229
0.000793987
0.00077619
0.000731536
0.00139562
0.00433985
0.0111964
0.000918281
0.000224499
0.000629288
0.0119092
0.000114981
0.0033882
0.000816237
0.000821698
0.00482771
0.00075926
0.000799726
0.00526618
0.218465
0.3255
0.243198
0.3489
0.298981
0.339904
0.350901
0.191857
0.00369032
0.00255862
0.00699809
0.00607763
0.00638344
0.00184782
0.00321095
0.00164419
0.00626023
0.00475989
0.00183514
0.00455778
0.0227809
0.0321492
0.0985909
0.0673424
0.0259242
0.039718
0.0957755
0.0967908
0.0917257
0.0923096
0.0144459
0.090429
0.0939745
0.0188571
0.0727164
0.0452215
0.0462494
0.0583272
0.000792066
0.00171309
0.00200796
0.00244643
0.00223649
0.000752508
0.00100569
0.00180536
0.00166657
0.00210768
0.00307078
0.00141248
0.00125496
0.00235328
0.00120428
0.00269005
0.00320456
0.00155941
0.0224693
0.0231129
0.0328741
0.0338618
0.0296217
0.0315731
0.0179576
0.0223014
0.0253748
0.0361735
0.0331932
0.023539
0.0412179
0.0235748
0.0331347
0.0340156
0.0314652
0.0220782
0.0213483
0.0322736
0.033801
0.0197926
0.000919384
0.000912772
0.000925102
0.000937036
0.000917337
0.000929052
0.000922125
0.000910895
0.000919302
0.000927062
0.000933102
0.000926745
0.000926957
0.000921259
0.000925925
0.000919348
0.522639
0.49264
0.474135
0.526986
0.432255
0.517196
0.298065
0.270865
0.202039
0.195836
0.202016
0.207503
0.400647
0.215727
0.236742
0.180103
0.281262
0.305286
0.028592
0.0493251
0.0449043
0.0283702
0.0160277
0.0101126
0.02406
0.0289064
0.0362265
0.0307581
0.0172362
0.0143869
0.0127792
0.0146103
0.0242957
0.0178379
0.00203419
0.00115607
0.00071597
0.000723377
0.00107756
0.000764209
0.000774996
0.000784955
0.000582113
0.000536631
0.00297607
0.00218933
0.00405391
0.000159571
0.000694181
0.000576272
0.000647436
0.000708597
0.0016843
0.00330153
0.0522888
0.0525688
0.0485701
0.0316029
0.0104053
0.030312
0.00270324
0.0260756
0.0326592
0.0431956
0.0116772
0.0099569
0.020629
0.0233595
0.0133032
0.0149647
0.0118983
0.0104607
0.00691638
0.0195472
0.0123935
0.0189925
0.00384744
0.0147389
0.00554876
0.0033304
0.00407851
0.00342619
0.0677076
0.0558254
0.0398339
0.0621816
0.075444
0.0282498
0.0205952
0.0526338
0.0616941
0.0597293
0.0223996
0.0169224
0.0384761
0.0409313
0.0342498
0.0249301
0.0331083
0.0131652
0.011927
0.00202978
0.013109
0.0125147
0.0142861
0.0134823
0.00982493
0.0114958
0.00593725
0.00507725
0.00701502