/*--------------------------------*- C++ -*----------------------------------*\
  =========                 |
  \\      /  F ield         | OpenFOAM: The Open Source CFD Toolbox
   \\    /   O peration     | Website:  https://openfoam.org
    \\  /    A nd           | Version:  10
     \\/     M anipulation  |
\*---------------------------------------------------------------------------*/
FoamFile
{
    format      ascii;
    class       volScalarField;
    location    "10";
    object      omega;
}
// * * * * * * * * * * * * * * * * * * * * * * * * * * * * * * * * * * * * * //

dimensions      [0 0 -1 0 0 0 0];

internalField   nonuniform List<scalar> 
75457
(
33.1253
34.1876
25.91
20.6252
23.6211
28.9391
27.9963
34.3129
16.9426
16.8113
15.8816
19.2956
19.1981
17.0131
2.40315
2.39433
2.03162
2.39379
2.32941
2.04858
2.2112
2.2468
2.41669
2.38122
2.3008
2.56948
2.59836
2.16223
2.25925
2.23044
2.04252
2.36224
2.42236
1.98742
1.94992
2.04766
1.97443
2.53673
2.43844
1.98646
2.03842
1.96847
1.97274
2.54549
2.70984
2.31416
2.24217
2.49154
6.10851
3.407
4.84985
5.57613
13.8686
4.64269
3.70907
3.90588
7.81722
8.74557
7.9266
15.3399
12.0059
6.55985
8.73423
7.19256
7.07153
7.99913
6.67622
8.29181
8.50712
13.9409
8.20263
14.543
7.76978
7.74356
8.07039
7.1495
7.59801
14.1264
9.823
6.21665
15.1234
10.0384
12.2403
7.50739
5.84174
5.25461
5.60004
6.03864
13.0542
14.6204
8.32546
6.31743
13.1471
8.55367
5.67407
3.37436
3.67265
3.90555
23.9689
6.83135
8.38388
11.0012
22.1422
20.0089
39.5614
41.0977
20.826
18.6973
20.4607
7.28014
5.64163
15.7465
18.463
13.4128
5.31811
9.84554
22.1153
9.21818
8.59534
24.2109
6.03528
6.75348
6.69785
6.42482
7.53294
7.58537
18.1348
6.45268
11.4085
7.19887
6.85786
6.91547
6.55172
6.07213
3.32597
15.3236
7.03663
5.45545
5.71863
24.6699
4.40513
5.38853
6.64229
4.33492
4.55385
5.96929
7.10278
8.23679
17.8877
5.07115
31.6604
9.35527
5.12146
4.13955
8.9717
13.7292
4.25286
27.0552
5.29705
6.98596
26.427
5.34384
8.09877
6.04183
6.26093
6.53192
6.22481
6.39879
5.78896
5.78731
6.07073
6.29429
6.01953
6.1429
5.95716
5.81756
8.67824
7.9166
7.58194
11.6186
4.6959
22.3351
3.8643
12.1053
28.1268
5.16038
3.80482
9.59502
17.8555
39.4369
7.8562
7.87482
8.5156
13.0031
6.31833
24.7066
4.00627
4.59259
4.05716
4.39979
3.90461
7.46486
8.67578
12.898
6.24238
7.17158
12.9459
11.7007
12.577
12.6992
11.1256
11.4068
23.5753
26.3067
9.55158
10.9906
25.1894
11.0225
27.5671
25.7066
26.3665
8.56095
12.1879
23.3166
10.6275
11.4063
27.8058
13.2192
7.86496
20.1846
5.05417
4.96567
19.8086
8.35905
9.6415
7.20321
9.2974
4.48763
4.77779
5.02185
5.27998
9.03987
21.5233
7.15522
16.5043
10.1124
6.9523
7.31214
10.8974
24.6648
10.4648
21.8057
9.69215
19.6293
7.90031
16.5861
6.36545
4.62323
5.36736
3.28438
3.70411
4.10111
4.5676
6.14403
10.0997
18.0897
12.3874
30.287
17.3006
20.0799
26.796
17.0302
5.97658
6.40129
10.187
6.19382
10.5302
11.4901
17.4593
10.2305
9.51555
16.2702
9.76432
15.3592
7.46832
14.7581
6.81038
4.20277
4.20339
5.47853
5.07459
5.48076
5.03975
17.4917
15.514
24.1463
15.9854
8.54233
8.46273
22.4931
8.29222
8.5041
21.7116
3.41394
3.38223
1.49203
21.7116
2.45374
2.35467
21.7116
1.29087
3.0632
4.82766
2.683
9.12781
10.283
10.2744
9.59914
11.4199
22.387
9.49794
6.40267
7.30761
13.8569
22.387
4.50519
4.57655
5.11481
7.96647
12.7906
10.7896
9.54482
11.1332
25.6313
5.6436
5.80266
8.64402
7.89032
30.9318
9.83707
8.29692
29.4082
6.71027
4.78233
18.5105
6.12338
10.4061
6.68883
18.5105
5.78761
6.02971
8.30799
6.43217
4.57606
9.24927
8.0398
9.97288
28.1767
8.23338
5.47262
15.6997
22.6015
16.1893
22.0207
4.38177
4.109
5.32331
5.00375
7.29368
6.37208
10.9167
6.15858
6.76346
8.61601
23.1173
12.5353
11.3883
7.56062
18.6314
6.62786
9.21394
8.51536
18.9025
15.9208
18.1344
4.12729
8.60732
8.71736
4.85315
4.27956
8.23592
4.52157
4.5744
4.42095
4.41099
4.58136
4.59789
4.50982
4.57553
4.60298
4.61588
4.52227
4.43108
4.52243
4.48753
4.44843
4.5631
4.44209
4.41729
4.36532
4.36384
4.44382
4.38013
4.46032
4.39315
4.49531
4.47736
4.36528
4.42839
4.41266
4.46225
4.44882
4.26077
4.32377
4.33733
4.37404
4.31798
4.35181
4.38604
4.43628
4.26462
4.3049
4.26523
4.26014
4.32332
4.3695
4.3375
4.41908
4.34734
4.37208
4.33985
4.37433
4.3308
4.36094
3.71046
2.85481
2.87031
2.8657
2.8535
3.52019
2.87483
2.84769
2.74155
3.79017
2.69866
2.78637
2.78094
2.82832
2.6515
3.40054
29.6745
19.9527
16.643
16.9399
13.1571
13.3928
13.4252
15.5508
12.9679
13.4169
29.3941
31.555
27.5399
18.608
13.8634
10.7763
3.56694
3.50962
3.76978
3.90866
3.70651
3.62542
3.55537
3.50839
3.59708
3.62721
3.65854
3.84925
3.82262
3.60029
4.68211
3.72388
3.6433
3.64968
4.55648
4.61171
4.57704
4.50685
4.47819
4.51524
4.52868
4.54301
4.54137
4.5252
4.55599
4.62705
4.54433
4.58373
4.60629
4.62393
5.83058
5.59595
5.91648
5.59205
5.36261
6.01515
6.3604
6.03546
5.86345
6.03524
5.87594
5.75952
6.0146
5.73861
5.80996
6.24607
6.33831
4.70573
4.86406
4.67146
4.70158
4.62369
4.59228
4.67682
4.8041
4.60273
4.49996
4.71719
4.55557
4.49344
4.50612
4.57041
4.44186
4.61563
4.60605
3.93319
4.44789
5.43245
3.42803
4.7766
3.7395
4.56398
3.60346
3.57451
4.18798
5.42999
4.80153
3.99078
4.31489
3.66625
5.30112
5.54587
2.17024
2.14896
2.18938
2.40818
2.0578
2.49102
2.17658
2.1536
2.15991
2.61416
2.27048
2.15811
2.2025
2.10361
2.60591
2.56664
2.82427
2.59076
2.92033
2.89585
2.87199
2.65705
2.58677
2.92955
2.95447
2.90494
2.63078
2.51045
2.50719
2.79098
2.65279
2.76062
4.25618
4.27068
4.29435
4.50785
4.56248
4.2905
4.29243
4.49828
4.42456
4.47438
4.26962
4.54276
4.08154
3.55454
4.3849
3.36493
4.29643
3.94417
4.2483
4.21587
4.20375
3.03506
2.90922
3.02823
3.44124
3.27821
3.04856
3.32227
1.99701
2.68377
1.93898
2.45694
3.83931
3.51786
4.54272
3.32851
3.1718
2.53621
2.29378
2.09525
3.99391
2.23254
2.369
2.65296
3.64416
3.62356
3.64517
3.68007
3.80355
3.69464
3.64321
3.5978
3.58378
3.6742
3.70437
3.67513
3.69256
3.76044
3.76503
3.67275
3.6374
3.71107
3.58674
2.48944
2.46219
2.19485
2.78822
2.42458
2.70668
2.6167
2.29266
2.47162
2.15952
2.67051
2.55043
2.43411
2.44814
2.8417
2.65702
2.73754
2.81804
2.66323
2.74337
2.55804
2.5048
2.57736
2.41099
2.43625
2.69005
2.55404
2.49113
2.53831
2.33392
2.3856
2.5205
5.0695
6.28791
6.39134
3.97068
3.96869
5.45133
4.74836
3.37727
3.69108
6.91286
5.57861
6.68099
6.19492
7.38777
7.72625
7.10813
7.00686
6.6796
6.82387
6.45841
6.48616
7.78752
9.11192
9.08059
7.59834
8.26704
8.15352
6.73847
7.33198
8.37556
8.3249
7.69482
2.72799
2.7652
2.99675
2.85628
2.86131
2.65811
2.79348
2.80622
2.78438
3.47772
3.85326
4.33189
2.60423
3.79633
5.13772
3.5233
4.38592
2.04158
3.24775
4.58342
5.98671
3.16841
3.58653
10.0707
7.50675
3.91295
7.11897
4.34692
4.38812
4.0925
4.30937
4.79173
5.40456
5.91336
6.75288
6.83899
6.74984
5.50492
6.98154
6.18812
6.93664
2.07521
2.13129
1.8646
1.89419
1.9503
1.90239
2.02527
2.0516
2.48061
1.99415
2.17221
2.23747
1.86015
1.93359
2.31748
1.92688
2.16454
2.13251
2.05804
2.47014
2.54403
2.00828
2.59476
2.31775
2.77288
2.34347
2.31917
2.99443
2.80922
2.20519
2.56001
2.82616
2.64119
2.60369
2.92151
2.22533
2.39898
3.13501
2.67359
2.30872
2.07308
2.10088
2.66786
3.40779
2.10557
2.18926
2.80713
3.17459
2.13341
2.11251
2.42778
2.19034
2.21252
2.64178
2.72521
3.12678
2.25245
2.21171
2.39842
3.15802
2.15901
2.13107
2.39591
2.07917
4.17563
5.69209
2.09093
2.25855
2.57393
2.93451
2.27078
2.40551
2.83253
3.51167
4.16799
3.75979
2.40908
2.29362
2.17665
2.695
2.34362
2.67578
2.66207
2.48346
2.52106
2.52544
2.43297
2.3603
2.45239
2.45408
2.52229
2.43865
2.34161
2.55551
2.64415
4.44972
4.73697
4.83635
4.53467
4.68953
4.73864
4.84857
4.61055
4.70143
4.81405
2.99544
2.65626
3.00816
3.37193
2.51468
2.49137
3.31968
4.04406
2.57638
3.28836
3.15585
3.1666
3.54249
2.56764
3.43239
3.171
2.50379
5.74019
6.06319
5.90509
6.3012
5.99309
5.6884
6.20111
5.89818
5.74157
5.71099
5.85266
5.72655
6.01535
5.71507
6.10024
5.59041
5.69537
5.50367
5.65741
5.53774
4.76654
4.83491
4.74734
4.77505
5.02324
5.15841
5.60498
4.91934
4.91533
4.79188
5.48388
5.53956
4.74898
4.86145
5.09454
5.82636
9.633
8.21837
7.19924
7.64313
11.6815
9.27462
12.0967
11.6405
9.49359
9.22316
11.8926
10.6195
10.2182
2.99758
3.22769
3.00769
2.83835
2.74539
2.7975
3.16446
3.03447
2.82851
2.87048
2.55568
2.89115
3.85423
4.25898
3.99708
3.89909
4.19435
4.10671
3.7704
3.73942
3.70435
3.77418
3.80048
3.77052
3.85892
3.83143
3.9245
3.85659
4.03029
3.85794
3.85605
3.98215
3.97232
3.77703
3.77149
4.01159
2.9708
3.46545
3.81945
3.50903
2.7803
2.7881
3.39812
2.62498
3.00173
2.94637
2.71622
2.69889
2.96813
2.75783
4.50806
4.8741
5.52122
5.19788
5.03278
5.12767
5.23574
4.99361
5.73569
5.43442
5.95916
5.84671
6.06884
6.28573
6.04561
5.99466
4.50024
4.91856
4.63788
4.40913
4.40336
4.48934
4.42236
4.39404
4.42206
4.51399
4.59418
4.48864
4.56763
4.57675
4.811
4.65112
13.484
12.0009
12.785
12.1365
14.3165
11.8374
5.80568
6.38624
5.92886
6.33488
6.10381
6.92902
8.91588
10.861
11.0575
8.42106
10.279
10.3915
6.84294
10.1578
6.67523
7.63029
7.34511
7.07307
6.83569
7.15346
7.73396
7.37558
6.89538
7.31115
7.38007
7.05672
7.49161
6.96273
7.13168
4.9989
5.31252
5.28473
5.31373
5.91483
6.27773
7.12501
6.04542
7.44201
7.86517
7.42715
6.65321
8.4146
8.90306
3.73383
4.13418
3.62368
3.71942
3.59709
3.80753
3.4216
3.23287
3.95348
3.4727
3.61258
3.22518
3.38342
3.21493
3.24003
3.19097
2.37845
2.42313
2.31624
2.34489
3.58133
3.66788
2.17773
2.85139
2.87739
2.18605
3.48088
3.27409
4.08349
3.21883
3.22993
3.74121
3.63239
4.35359
4.4814
2.65886
3.32449
3.00588
2.8623
2.75086
3.85874
3.13438
3.36961
3.61604
3.42441
2.58899
2.62985
2.88882
2.6656
3.58742
3.35621
2.77485
3.13506
2.8962
3.0069
2.62649
2.74275
3.12678
2.81012
2.76449
8.26216
7.19139
7.2046
8.13033
8.51772
7.54938
7.38433
7.57853
7.54564
7.47325
7.61621
7.44925
8.22027
7.98894
8.0764
8.33013
8.04268
7.83942
7.40306
7.86048
3.11223
3.07339
3.03674
3.00613
3.03964
3.19617
2.95796
3.04024
3.17614
3.04915
3.01714
3.01113
4.7697
7.04598
24.3558
5.39617
18.6744
6.3661
11.3974
20.7675
22.3565
5.12689
11.5499
14.2909
23.9548
6.64123
11.3827
3.95861
8.34491
5.25898
4.6355
8.07301
9.52693
7.52117
4.58597
3.8833
3.81471
12.2482
14.2226
13.5281
15.0848
3.77522
3.92325
3.77796
3.62697
3.75152
5.51822
6.22535
5.14968
1.97364
2.26225
1.84374
1.97019
1.84894
1.80129
1.77913
1.84205
1.81111
1.81612
1.93064
1.84997
1.84001
1.82779
1.82984
1.82625
5.75537
5.70202
6.41636
6.08415
10.9605
9.21978
5.29654
7.06169
8.55223
7.54717
8.36005
7.41783
3.78593
11.621
13.5985
9.67455
12.4457
4.5232
2.77914
9.61052
2.84595
8.45948
16.6542
4.74553
8.13152
4.05251
9.90223
18.8429
10.061
2.70065
4.37086
5.13735
19.8058
4.47827
6.57589
8.00716
12.6645
4.15735
8.05187
3.71615
21.1968
5.85789
7.10103
25.4038
5.37169
8.47483
7.77822
7.69198
16.1737
5.63166
6.58783
11.1603
15.131
4.49103
3.97496
8.64171
3.85135
8.81778
16.0705
8.68082
3.50051
3.90155
14.9294
9.34144
3.86353
3.52356
4.3537
3.6397
2.60212
3.05976
2.76539
3.71886
3.85826
2.33449
2.46523
2.49002
3.4402
4.25551
2.83798
3.07055
2.46294
3.38379
3.52805
4.33876
3.6781
4.08944
4.12674
3.90367
3.94234
4.67408
2.79138
3.62806
4.26185
3.95702
5.94267
8.43743
5.2798
11.8952
11.5785
10.9861
10.7655
12.2772
10.6218
10.1906
10.7791
11.1121
11.0548
12.3963
12.9173
10.2071
10.4357
10.8153
11.2219
10.912
12.3875
11.6173
10.8047
8.07643
9.99671
6.85501
6.73978
10.7724
10.7596
18.0902
15.8649
6.53767
6.91746
8.0159
10.3119
11.4122
15.4309
8.04683
10.0867
6.46324
6.52058
7.29431
5.20351
4.50817
4.43463
4.07853
10.9571
15.2181
9.8824
12.2634
4.87713
4.45673
11.6211
7.53716
4.78652
6.67759
12.8225
8.10991
6.28981
11.3472
6.33615
11.2426
2.27515
2.26065
2.67924
2.32805
2.63628
9.08621
11.6421
5.12617
5.47423
3.67276
3.45816
2.67548
3.49866
3.25829
6.4805
3.12863
2.58447
2.32127
3.18643
7.50244
6.50853
6.63029
6.6955
7.96724
11.2738
6.64478
6.38358
6.07459
6.87061
7.45488
13.5406
11.3502
6.91291
7.7327
10.228
24.481
22.8343
24.0488
26.0453
30.4427
27.4804
30.3357
43.4259
40.9918
36.548
32.3048
31.698
44.7034
33.7519
32.5191
31.2402
38.9016
38.757
39.479
29.36
7.93526
9.561
7.8072
10.085
6.25024
6.66262
4.24464
5.26276
11.9139
8.11859
16.963
9.27138
4.6591
4.43727
14.0323
11.0216
16.9178
8.7696
18.9758
6.51709
30.6407
37.5223
41.4726
55.8866
42.0923
29.8295
24.6175
39.5082
47.1105
41.9993
45.3342
35.6071
62.5742
41.0425
79.0097
80.992
55.2756
3.22019
11.9278
6.88652
31.7206
6.00785
5.78226
8.42075
7.63956
39.171
7.47301
1.97101
21.0902
12.1241
11.594
15.2057
14.5447
13.1314
11.6019
10.9366
10.6831
14.0166
15.136
12.5942
12.9307
12.8415
14.1873
11.5756
12.893
12.816
12.0106
15.4359
11.2174
11.3277
5.80455
5.69437
5.48888
5.62682
6.31931
5.86918
6.30553
5.73683
5.51393
5.63406
5.58965
5.47156
5.41266
5.36491
5.82867
5.68041
5.59691
5.49791
4.82037
5.25646
4.80847
4.9807
5.0881
6.30553
4.77261
4.95176
6.07644
6.95186
5.13136
4.84658
5.07383
5.90786
5.15627
6.01486
6.43756
6.43722
6.07145
5.70352
6.55125
5.56874
6.33912
6.22767
6.34851
5.60164
6.23833
6.2188
6.25607
3.15866
3.23093
3.1974
3.34374
3.08544
3.04546
3.16784
3.14723
3.51059
3.66697
3.14275
3.15478
3.20499
3.31481
3.51337
3.43582
7.12073
7.17396
7.30963
7.1173
7.08274
8.11126
6.96834
7.06517
8.47511
7.27518
6.58986
6.41865
7.12107
7.8534
7.68747
7.2211
7.258
21.8387
21.9962
16.7867
18.1165
19.6365
21.9364
25.1967
25.5066
18.6398
19.7754
25.5626
30.1082
24.869
26.6352
23.7599
25.151
24.129
7.47534
5.88844
5.45554
7.81663
5.25148
13.425
20.1781
5.41093
11.5314
11.4902
8.55317
10.4836
11.6791
5.79614
3.32586
10.2259
26.5588
4.00115
8.28111
6.79671
5.63847
4.63958
4.47032
6.87711
6.56552
5.27853
5.16901
4.93061
4.82044
4.78276
5.00724
4.65438
4.49662
4.864
4.5973
4.64176
4.86549
5.26702
4.69078
4.68805
3.70233
3.46815
3.24602
3.46051
3.94167
3.36153
3.29246
3.29052
4.13505
3.30214
3.47726
3.47842
3.76374
3.42715
3.189
3.11414
5.35592
4.37711
4.77034
5.653
4.71361
4.26312
8.81685
5.75814
6.12975
6.07673
13.9721
8.09611
4.93787
8.96963
4.30698
7.16723
8.87667
13.7454
16.2514
10.0482
14.4567
16.7935
10.68
15.3276
11.2251
7.84638
5.8334
4.54104
14.5839
9.72098
11.0685
3.03183
4.34495
11.4201
3.89136
10.3592
9.44783
3.79496
3.49599
3.27962
8.06231
5.50508
5.49454
5.38865
6.75095
5.52504
5.5448
6.58411
5.6277
5.69728
6.68986
5.66709
5.60989
7.5877
6.64279
9.92175
6.03734
7.25613
8.7482
10.1308
9.02868
8.08986
6.98326
5.5291
4.42011
4.50787
4.69222
8.39261
6.94162
7.27986
6.91739
6.49527
4.19254
6.17832
7.59274
7.66059
18.2131
17.6384
6.37158
6.4422
6.89667
20.7047
8.42413
12.1254
7.46073
3.31128
9.0004
14.7309
6.10913
4.80803
4.038
9.6267
8.39769
14.2335
16.2935
6.66901
9.09301
9.9541
4.13843
6.16786
5.84468
4.42471
4.40132
9.57761
8.73675
10.0693
15.7826
6.93734
10.2851
4.46682
4.16105
7.7988
4.32739
4.47586
4.47487
3.92391
4.48385
3.67824
3.52896
3.67988
4.53748
3.42315
3.24462
3.54957
3.48948
3.20199
3.12296
3.21945
3.17234
3.17115
1.97631
2.00462
2.05419
2.03443
2.01888
2.15669
1.9542
1.93968
2.00014
1.97231
1.94199
2.13637
1.99771
2.08791
1.98046
2.0771
1.9919
2.01186
2.02988
2.36287
2.19548
2.01242
2.33647
2.09163
2.05803
2.02969
1.8338
1.68955
1.62947
1.85082
1.94795
1.61193
1.61517
1.78329
1.81699
1.61041
1.68787
1.66587
1.68457
1.67431
7.3016
6.98328
8.71811
8.93295
8.22092
8.73906
7.73095
6.6784
7.42663
8.03353
7.05314
7.15968
6.95578
6.38941
8.95278
7.59001
8.50275
3.94169
3.46034
3.95294
7.6518
6.32538
3.46306
3.75323
3.74029
3.30076
4.6223
5.00166
7.10024
3.04402
2.97003
5.18635
6.47025
2.49722
2.63229
2.6219
2.6651
2.97927
4.00584
2.9173
9.62102
7.42685
3.35823
3.25005
4.84846
5.65455
8.33116
6.06455
6.32597
7.17139
8.02226
15.121
20.8879
10.7055
20.0128
4.42949
7.46131
4.21673
1.82143
1.77864
1.82758
1.77777
1.68417
1.8328
1.77028
1.74935
1.90777
1.97359
1.87
1.82174
1.76346
1.83065
3.23999
3.17118
2.81706
2.79677
4.01234
2.59319
2.77864
3.80637
4.39612
3.78744
4.64728
3.54607
3.08977
3.85791
2.47037
7.58173
3.35357
19.3013
19.3013
3.11727
19.3013
4.71679
4.92289
10.1236
5.12215
5.26447
4.76312
4.42508
3.98454
7.10585
4.29364
4.55217
5.39456
20.3898
24.2407
25.6163
20.39
21.2801
21.498
23.7104
19.6302
23.4749
19.5377
9.98388
10.6461
7.64521
11.8046
4.28538
3.89179
3.49532
4.78938
7.16285
8.7493
10.4402
9.99964
8.76397
3.68053
3.85207
2.76377
7.95374
9.50234
3.84958
3.74514
3.64053
4.04486
4.3278
6.43832
3.7691
4.38113
4.87566
12.2309
4.36964
3.40543
3.45452
12.2309
6.62484
12.2309
4.10826
3.23059
3.06434
4.83234
4.80583
3.73719
7.99419
7.87052
7.45945
8.00166
7.59394
7.28366
7.67014
7.53902
7.08949
7.45023
7.15678
7.49803
7.77833
7.52932
7.15634
6.78164
7.01969
6.74082
7.22691
7.86752
7.83985
7.46001
7.71047
7.2885
7.20449
6.54953
6.01861
6.33432
6.03644
7.16901
7.22675
8.20822
7.82514
5.96577
5.97469
6.12176
7.07074
29.2616
29.993
24.9815
23.6187
38.8025
31.9787
36.7126
30.9433
29.0108
45.8799
35.6815
37.5571
37.1949
44.0148
58.1732
55.9096
4.68136
4.88316
4.87801
4.66225
4.6244
4.66591
4.68889
4.60923
4.81057
4.80426
4.55313
4.71786
4.56398
5.45047
5.19086
5.49158
5.47143
5.39277
5.10239
5.76597
5.53783
5.72039
5.47613
5.63481
5.75825
5.34815
5.5006
5.36837
4.87869
4.95157
4.75296
4.82798
5.15485
5.06254
4.73484
4.76173
5.10714
4.91813
5.01006
5.04165
4.9342
4.95687
5.0926
5.26871
9.95787
9.91139
9.72758
9.10252
9.25474
9.61209
8.94348
8.78525
9.22729
9.37121
11.2146
11.0194
9.50761
9.18623
9.32194
9.40146
10.8535
9.7545
9.91309
9.72915
8.21435
8.00915
7.66076
7.3067
7.9158
7.7609
8.54387
7.89208
8.83976
6.64874
7.08249
8.59833
7.37577
8.11751
8.62312
9.52856
8.79597
8.68907
9.74971
9.89462
10.3439
9.18895
9.59199
10.6268
9.28087
11.4071
12.0571
11.4236
9.89285
9.02002
10.4936
12.4715
11.0646
12.8437
11.9811
12.19
10.1476
13.5961
12.1915
11.1597
10.7159
11.5598
12.4204
9.96878
9.7291
9.56578
10.3433
11.1176
3.41194
3.15779
3.09698
3.06518
3.55614
3.43704
3.40037
3.55785
3.62388
9.17465
9.5714
8.48417
8.51897
9.15124
8.35307
8.26381
8.69921
7.93541
7.77635
7.85891
7.82552
8.09609
8.8755
8.34344
7.89651
8.18819
8.37584
8.70821
9.23717
7.87889
8.60582
3.75244
3.80709
3.74587
3.75723
3.77587
3.91526
3.81012
3.65244
3.79456
3.70314
3.7914
3.66872
3.80555
3.62757
3.63697
3.6715
3.71038
3.68197
3.70194
3.68146
4.97798
4.76672
4.87029
4.67501
5.01486
4.76644
4.84486
4.94426
4.87513
4.78115
4.80976
4.62381
4.69287
4.7399
4.69911
4.93097
4.83662
4.95271
4.63364
4.82151
4.68708
4.92344
4.65272
4.51018
4.59645
4.61889
2.76371
2.95447
2.91687
2.78549
2.628
2.6493
2.46227
2.56991
2.90395
2.52393
2.94181
2.72173
2.68118
2.40653
2.45064
2.69007
2.4848
2.47239
2.4664
2.48403
2.50246
2.54394
2.53815
2.70078
2.48175
2.53981
3.22561
3.27395
3.36266
3.34499
3.14724
3.18075
3.19948
3.70669
4.1294
3.6605
3.56745
3.22823
3.2782
3.3041
3.36624
3.33001
3.48037
3.28488
4.22499
4.30309
4.47606
4.25402
4.16128
4.39057
4.41818
4.13121
4.14673
4.25042
4.33571
4.14975
4.08831
6.45971
6.98115
6.5314
6.21504
6.53905
6.93536
7.44569
6.79771
6.74942
6.42857
6.58445
6.99623
6.63697
3.71422
3.22946
3.58221
3.65015
3.46237
3.33234
3.5209
3.56552
3.54249
3.80536
3.81828
3.67946
3.78236
2.48394
2.21742
2.22502
2.23594
2.25481
2.4574
2.43797
2.46852
2.24829
2.23415
2.30757
2.32782
2.24341
2.24656
2.28885
2.23259
2.18038
2.2254
2.30993
2.32286
2.25934
2.28265
2.45746
2.44177
2.69231
2.30512
2.3978
2.3469
2.32657
2.40803
2.3595
2.54945
2.53265
2.48207
2.46795
2.49931
2.56077
2.54089
2.46047
2.43712
2.52089
2.58993
2.49839
2.52573
2.59848
5.92786
6.26225
6.30455
5.27001
5.60258
5.33271
5.50807
5.18338
5.17047
5.23403
5.02974
4.74585
4.65693
4.91822
5.10942
5.30144
4.85323
5.10085
4.93874
5.15536
5.17375
4.87137
4.88227
5.00888
5.55803
5.71221
5.61319
8.20619
5.66933
5.33968
5.46335
5.44844
5.51727
5.73788
4.60767
5.02737
5.22993
4.88976
5.96395
4.50791
4.88452
4.97398
5.45643
4.81443
5.11707
4.84528
4.87694
4.93272
4.69483
4.63849
4.67749
4.86534
5.11379
5.0225
5.22333
4.83093
5.068
4.5065
4.57094
4.31981
4.35639
4.51546
4.65021
4.63611
4.67425
4.97097
4.97426
4.661
4.5809
4.71932
4.82769
4.76554
4.67417
4.8302
4.82185
4.76673
17.117
15.8013
19.7466
14.2155
14.5046
18.3709
19.8407
16.3813
18.5627
17.3102
14.4869
18.6678
15.6242
4.14807
4.22534
3.95103
4.03245
4.08817
3.88052
3.83396
4.01592
4.03634
3.93614
3.88107
4.24837
4.13532
3.85454
4.07931
4.04626
4.52984
4.09508
4.67667
4.48173
4.04504
2.3856
2.4056
2.38704
2.4367
2.43894
2.4078
2.48193
2.48487
2.43878
2.37032
2.51769
2.54659
2.37464
2.42874
2.38711
2.42533
2.46127
2.486
4.24403
5.18371
4.31587
4.58607
4.58557
4.82719
3.51947
3.47414
4.84627
3.55152
3.72246
5.3008
3.85537
3.58201
3.65909
3.51954
3.51499
4.23379
4.50323
3.4139
4.35845
3.62979
3.51203
3.4443
4.12686
4.45088
4.49458
1.76767
1.83341
1.84834
1.73759
1.85891
7.80674
8.22992
8.23853
6.12067
9.89464
6.09506
11.7884
13.1758
14.2279
12.0817
15.4792
12.2418
11.4318
13.2927
7.59958
6.60241
6.71252
6.66669
6.56726
5.41744
3.9345
4.47245
6.17583
5.63144
3.8188
3.62758
6.29387
6.48244
3.83143
3.69257
4.08714
4.49048
4.42706
4.94758
6.38999
7.39088
6.64345
9.82704
12.946
2.17246
6.8323
3.36068
4.40281
19.0662
31.4318
21.5661
21.561
9.89975
4.63266
8.05587
20.1415
18.5237
6.94574
4.90589
5.16116
4.2446
4.06771
4.20058
3.87836
3.99891
4.52586
5.61679
5.24987
3.58671
4.34583
5.13549
4.45573
5.12114
4.01558
4.84367
4.70427
3.68344
3.73118
4.66289
3.45671
4.56674
4.99564
5.35016
5.04408
3.53588
3.41329
3.55692
3.61092
4.07117
4.02376
9.05897
9.88961
9.74852
9.28397
9.45206
9.41585
11.3988
8.91392
10.0517
10.6289
6.82988
6.79683
6.94011
7.99165
9.95597
7.85149
10.2653
9.99542
6.69205
8.21443
4.91321
6.68634
3.64818
3.63757
3.62091
3.58066
3.58095
3.5182
3.59903
3.63578
3.6076
3.60744
3.5539
3.50415
3.50067
3.61283
3.59171
3.54108
3.56611
3.53881
3.45676
3.50534
5.72794
5.92943
7.03937
4.64014
5.61324
4.75574
7.15836
5.09344
5.50319
4.45783
4.52202
5.45316
4.67348
4.51748
4.8754
9.00642
8.69461
8.68401
9.02737
9.98373
7.79124
9.06918
9.36286
3.03173
3.14776
3.11532
3.14122
3.10097
3.09624
3.13373
3.21913
3.05847
3.05629
3.16153
3.07564
3.57065
3.66601
9.83198
5.40135
3.40162
4.03737
9.32277
6.94339
9.56472
10.0502
15.1993
7.50724
11.523
17.3467
7.16182
4.46339
4.44824
4.88251
2.98783
3.0352
3.00214
3.01585
3.07896
3.03268
2.99396
3.16141
3.07995
3.07274
3.12484
3.18335
3.04842
3.03537
3.06456
3.17174
3.22206
3.10066
1.87471
1.8793
2.03907
2.08681
1.94544
2.03165
1.8601
1.88315
1.93155
2.15622
2.0068
1.92038
2.35049
1.95408
1.99693
2.01977
2.02651
1.91104
1.91791
2.087
2.01776
1.89714
15.8247
14.4464
16.32
18.9288
15.1684
18.0725
15.9101
14.3574
17.0399
18.8472
18.4864
17.0441
16.7719
15.6465
17.0033
15.2577
7.7904
7.35127
7.27588
8.29703
6.53586
6.31376
6.91359
6.1613
5.09358
5.18763
5.50047
5.44678
5.77829
4.98463
5.27609
5.5616
5.34519
5.48366
2.27098
2.73497
2.67674
2.31238
2.13636
2.04385
2.407
2.48475
2.38637
2.27399
2.16842
2.19933
2.11099
2.0634
2.20494
2.10823
3.90541
3.8767
3.95402
3.89596
3.74247
3.89828
3.88059
3.89529
3.91807
3.90541
3.86885
3.92193
3.90836
3.88232
3.83203
3.82683
3.79474
3.79132
3.73868
3.74946
8.82622
8.62547
7.6263
6.6427
5.07301
7.18054
5.8182
6.2975
6.72587
7.95008
5.13502
4.8756
5.89571
6.11485
5.38563
5.69432
3.65523
3.73722
3.51872
3.54467
3.00578
3.48941
2.80993
3.32162
2.83896
2.62131
2.7777
2.61474
3.54034
2.99211
2.51
3.22663
3.93539
2.12978
2.05451
3.41053
3.19677
2.93774
2.01122
1.92975
2.62971
3.08116
2.25381
2.1483
2.60397
2.82115
2.83537
2.84167
3.07103
3.11756
3.0707
3.13256
2.80242
2.88097
2.68776
2.76036
2.79063
2.74495
2.98455
2.97969
2.72154
2.87526
2.94884
3.69693
3.92272
3.36783
3.13511
4.38942
3.9848
3.46741
3.45804
3.88636
3.12762
3.17287
3.07314
3.09672
3.24609
3.26772
3.11272
3.22872
3.15177
3.6169
3.27965
3.20716
3.23232
3.298
3.30695
3.26566
3.19986
3.32111
3.3014
3.24101
3.31678
3.23237
3.24686
5.92703
5.62715
5.69077
5.82803
5.56704
5.7484
5.84898
5.76854
5.68277
5.70241
5.68084
5.523
5.50635
5.5109
13.3017
13.6471
17.8938
17.4833
18.3753
18.4896
13.2129
11.8367
15.4275
16.3639
13.5936
16.5856
14.4308
15.0439
1.89573
1.92406
1.95241
1.95697
2.24936
2.39224
2.25851
2.39061
1.95178
2.159
2.1261
2.121
2.24008
2.10473
1.99472
4.8446
5.61599
3.89717
2.40097
4.20317
5.49624
5.94981
3.60805
3.99751
3.64038
3.6781
4.01835
3.70666
3.76621
3.61976
3.48987
3.7451
5.70098
6.15106
5.17178
5.398
3.95424
3.75848
4.33614
4.58461
3.73264
3.70564
5.3746
3.72788
3.66253
3.65342
3.53331
3.7295
3.56473
3.66475
3.6173
3.56724
3.62144
3.46162
2.55345
2.57978
2.69176
2.70398
2.83125
3.266
2.60466
2.54709
2.53894
2.85644
2.57327
2.47644
3.17512
2.99996
2.85723
2.88335
3.41891
2.59195
2.42551
3.58477
3.40225
3.39599
3.15931
3.64132
2.36893
3.03517
2.4894
3.43887
3.7076
3.17687
3.49171
3.85232
4.05016
3.48403
4.02794
3.81589
4.15724
3.95841
4.25058
4.20607
4.11739
3.4679
4.01461
3.23394
3.27903
3.93042
3.71653
3.57307
3.41561
4.08684
4.12254
4.18376
4.11836
3.98381
4.09961
4.00335
4.03656
4.0471
4.029
3.96584
3.98269
3.98622
3.94011
4.03648
4.04338
3.97701
3.94448
3.95269
3.92938
6.88423
6.59309
5.31392
5.70364
7.32202
6.24882
5.5324
6.55179
4.93378
5.05159
5.01685
6.72107
7.84188
7.43001
7.49887
7.55251
7.66672
7.4566
8.01998
7.87335
7.33108
7.36725
7.05068
7.10587
7.03833
7.95719
7.65376
2.26745
2.33458
2.28523
2.25924
3.03194
3.01056
2.94667
2.801
2.81311
2.43962
2.64479
2.19174
2.21256
2.5658
2.55281
2.41664
2.92447
2.91344
3.39731
3.15201
3.01248
3.93172
3.87277
4.36749
4.2259
3.64134
4.11737
3.80228
4.11149
6.83627
6.10954
6.26824
5.89413
6.42792
7.8177
5.98554
6.06939
5.90157
6.10482
6.5789
8.06993
6.12711
14.5635
15.3232
15.2683
12.652
13.6194
12.8865
12.0771
9.18697
9.9715
15.3246
14.7125
15.9943
16.2574
10.0233
9.29507
13.8119
11.4736
9.86954
11.2857
13.9199
4.75505
4.73385
4.62763
4.71092
4.53224
4.46456
4.94237
4.5861
4.65144
4.57822
4.93348
4.649
4.66467
4.91005
2.73221
2.10263
2.14994
2.14824
3.73251
5.54068
2.99931
2.7771
3.49632
3.98214
2.18214
2.40995
3.26112
2.81652
2.06367
3.18846
2.59558
2.22714
6.00294
6.47976
4.5691
4.57013
6.01097
6.36101
5.94196
4.79537
4.92616
4.98869
4.71097
4.76773
6.13578
6.54242
6.95088
6.08635
6.74207
5.94405
5.76732
5.14334
29.3951
6.71957
13.7644
6.85757
9.2999
2.3686
2.33683
2.59772
2.73153
2.27877
2.36937
2.29426
2.2572
2.7703
2.51731
2.41588
2.53062
2.26325
2.38839
12.2143
12.3802
13.0121
18.4637
15.883
18.2429
6.13635
7.75266
11.8434
15.6243
6.10768
4.76239
4.86958
4.95074
4.88259
4.6223
4.63711
4.75639
4.73506
4.86379
5.01023
4.87445
6.90417
7.04712
8.27379
7.87524
6.48193
6.07691
6.17039
7.64374
6.70618
6.26213
6.42826
5.80264
7.60466
8.22678
7.48254
5.5991
5.71835
5.50213
5.44001
5.6257
5.50553
5.22236
5.32549
5.27814
5.28163
5.52749
5.78907
5.39354
5.49963
5.43532
5.3856
5.69282
5.82949
5.40416
5.62521
5.51053
7.75311
7.3728
7.40096
6.98207
6.75564
6.3137
7.62306
8.07344
7.19096
6.50822
5.93343
6.8198
5.85659
7.3152
5.85047
7.00966
6.4112
8.26632
8.2092
7.92736
7.80622
8.50668
8.90551
8.37124
9.43661
9.81227
8.78827
8.24039
9.13395
8.55604
7.49069
8.16199
9.08669
7.9878
8.27694
7.70437
8.3495
5.82607
5.96515
5.7692
5.85251
5.5927
5.78738
5.94768
5.69093
5.73957
5.90214
5.88451
5.91295
6.12425
6.13459
2.66979
3.02296
2.84841
2.99621
2.93035
2.81364
3.45045
2.79603
2.87951
3.00835
3.77878
2.995
2.84811
3.91768
3.25067
3.80649
4.31278
2.86966
3.17147
3.54445
5.54803
3.76021
4.69321
3.28422
4.82009
2.0616
2.1013
2.26479
2.03224
2.15803
2.16805
2.07617
2.14658
2.20148
2.11463
2.01538
1.97195
2.04806
1.97926
2.04937
4.04606
4.11671
3.57454
3.3166
9.99024
11.1386
3.28658
11.7104
3.71451
3.95121
3.71489
6.53635
5.73793
10.587
12.2231
8.263
9.61624
8.5236
5.66893
5.88421
5.77213
5.6396
5.96769
6.55786
6.28842
6.08756
5.78291
5.61311
5.64844
6.32258
5.82711
6.48718
6.01555
6.63976
5.78459
5.71998
6.43396
5.93154
6.27537
4.5899
4.50174
4.51111
4.48982
4.51969
4.51703
4.59054
4.61064
4.54248
4.55429
4.61015
4.7009
4.81034
4.7269
4.68608
3.62313
3.68902
3.64532
3.63133
3.68033
3.75214
3.70993
3.60408
3.95178
3.76683
6.74139
6.88882
7.1554
6.96226
6.54582
7.07498
7.52903
7.32165
7.31643
6.85285
6.74691
6.99515
6.15128
6.37383
6.84914
5.96932
6.64452
5.71287
5.47464
7.24245
6.4446
5.73161
5.8606
5.83653
7.02742
6.43288
6.07569
5.75731
5.96173
6.70907
7.06122
6.11202
2.99497
3.07762
3.08883
3.08659
2.58466
2.87872
2.55689
2.54785
2.52587
3.20761
3.31866
3.10748
2.57627
2.79909
3.35109
44.3267
15.0146
20.9584
10.039
17.891
35.7634
31.7609
26.3131
12.974
11.5551
10.039
23.6691
15.8526
14.7596
27.3265
4.93357
4.79103
4.92112
4.87231
4.71589
4.83674
5.35788
4.94685
5.70441
5.0874
5.46875
5.03296
4.92044
5.12072
5.0048
4.80927
4.79929
4.85976
5.03934
4.67
4.62475
4.969
4.87142
4.96447
4.83061
4.80758
4.85608
4.69306
4.75044
17.3008
12.9087
20.0751
33.1291
24.2977
19.2799
17.0139
39.4238
19.364
3.09683
2.87601
3.17113
3.13922
2.83973
2.85869
3.24909
4.037
4.01565
4.9243
4.85283
3.60291
3.76002
4.6031
3.2985
4.18783
4.23563
3.31626
59.7768
66.9513
81.1573
38.2155
64.7927
75.0822
105.351
101.138
45.083
89.1224
60.3072
61.1962
85.1139
88.1011
122.341
124.519
212.202
76.592
92.2329
122.495
204.111
62.2225
65.92
62.0292
81.1258
63.6792
121.402
46.98
46.1194
82.0666
62.5246
8.6491
5.60602
7.05075
20.2235
8.31162
25.9335
4.83196
8.28834
14.6341
7.9484
9.50671
9.27938
10.5365
9.53779
10.0898
8.89165
8.39262
9.69336
10.6157
9.74869
10.5881
10.4501
9.85489
10.2961
9.90998
14.9594
15.0198
15.253
13.9358
16.9693
17.1588
14.4032
13.2137
17.156
14.7833
15.3959
11.6022
12.6526
10.7842
13.7032
9.11227
14.9634
13.1002
8.56321
24.9359
23.4734
32.8705
28.7033
28.0428
26.8676
28.3099
34.7055
37.1005
35.9949
36.8181
41.8268
45.2198
8.35861
7.46989
12.8496
15.4958
7.94028
8.39011
14.7134
11.4518
7.49364
7.28019
11.8847
8.51144
8.07897
8.25322
9.66241
14.1145
16.1704
19.623
15.4228
19.0703
16.3777
10.4463
22.8548
13.1773
22.5283
23.2158
22.4174
28.2478
24.9038
9.44628
8.58857
20.6688
26.5365
28.2309
20.7136
3.34932
3.31485
3.22691
3.27916
3.301
3.34325
3.37184
3.32368
3.18624
3.18461
3.32346
3.37099
3.28282
3.37405
3.35474
3.73236
3.57024
3.58732
3.25671
3.45863
3.61451
3.31567
7.35287
6.87184
7.19235
6.73803
7.13079
7.33731
7.81479
7.6869
7.34683
7.03442
7.12251
7.67205
7.11316
7.81338
7.50332
7.4096
7.16874
3.57228
3.76637
4.08216
4.06575
3.90775
3.70531
3.54209
3.58608
4.17632
4.4041
4.92745
4.84267
5.43068
3.2458
3.82291
4.03373
3.9742
4.32498
3.9198
14.9196
12.8712
8.22242
8.50372
7.71241
7.50582
8.45579
10.184
15.9699
16.2888
15.1475
15.5053
17.5055