/*--------------------------------*- C++ -*----------------------------------*\
  =========                 |
  \\      /  F ield         | OpenFOAM: The Open Source CFD Toolbox
   \\    /   O peration     | Website:  https://openfoam.org
    \\  /    A nd           | Version:  10
     \\/     M anipulation  |
\*---------------------------------------------------------------------------*/
FoamFile
{
    format      ascii;
    class       volScalarField;
    location    "10";
    object      p;
}
// * * * * * * * * * * * * * * * * * * * * * * * * * * * * * * * * * * * * * //

dimensions      [0 2 -2 0 0 0 0];

internalField   nonuniform List<scalar> 
75457
(
-39.1376
-35.6204
-32.1726
-29.0856
-24.5455
-26.2709
-35.0318
-35.0789
-23.5146
-17.8778
-21.6726
-23.797
-23.4239
-21.0695
-4.75028
-5.15631
-4.87482
-5.10012
-5.48036
-5.02369
-4.57947
-5.18394
-5.23594
-5.54938
-5.30791
-5.64682
-5.3938
-1.24595
-1.22284
-0.758497
-0.557202
-0.673575
-0.729699
-0.9759
-0.428911
-1.3858
-1.24563
-1.38796
-1.604
-0.633821
-0.905042
-0.651165
-1.05365
-10.119
-9.7441
-9.24945
-9.37536
-9.69339
-5.56419
-6.02054
-6.36572
-5.86238
-5.95412
-6.04524
-6.43919
-6.50362
-6.20383
-6.3942
-5.83997
-6.07792
-5.8619
-5.82366
29.6285
29.8999
29.6362
29.9729
30.2103
30.2354
29.8835
29.9233
30.1973
29.9842
29.7096
29.9738
29.9614
29.6397
29.8502
-11.5526
-12.3185
-10.3206
-12.8124
-13.6912
-8.05792
-8.29836
-10.2124
-10.9879
-10.519
-10.0331
-8.51911
-9.78022
-8.17947
-7.92106
-9.50339
-8.08888
-7.86073
-8.0226
-8.05412
-8.40657
-7.99834
-7.82269
-9.02165
-8.24648
30.3431
30.2321
30.4942
30.5106
30.3768
30.227
30.1468
30.5983
30.6006
30.2139
30.2243
20.9799
21.64
24.1008
23.6737
21.0436
22.6181
22.6511
22.1238
22.4788
24.1639
23.9491
24.4919
25.0304
23.7851
23.2258
22.0314
24.4461
23.4449
12.5226
12.487
11.9073
12.7897
12.3862
13.9128
13.5957
13.488
13.478
6.60375
6.14683
6.70839
6.25173
5.68881
6.19555
6.21751
5.27421
-8.45488
-8.49763
-7.89547
-8.09413
-8.48265
-8.13747
-7.8446
-7.35374
-5.81569
-5.8684
-7.40737
-7.13173
-6.66762
-7.36675
-6.2497
15.1215
16.7188
16.9592
16.2996
16.7186
13.0079
14.387
15.9438
14.9611
15.9152
13.2442
11.9354
12.5219
-10.7866
-11.2622
-11.1318
-11.3361
-11.1111
-11.2443
-10.5539
-11.2319
-11.0959
-11.3351
-11.319
-11.1384
-11.0608
-11.2042
-10.2032
-8.91609
-11.3997
-8.75589
-9.16546
-10.7012
10.2236
11.002
9.62434
10.434
8.59374
9.40838
11.8414
11.5399
10.6248
7.80154
7.7659
-8.6805
-8.52348
-8.91463
-8.86727
-8.83118
-8.75874
-8.58818
-8.41357
-7.99549
-8.87377
-8.63202
-8.39901
-8.75805
-8.33133
4.6174
3.69441
4.08588
2.37963
2.93949
3.65601
3.5023
4.78269
4.36795
3.45708
2.81646
2.18186
4.43494
2.82496
-7.8926
-7.96273
-7.598
-7.58538
-7.90839
-7.82731
-7.98395
-7.91762
-8.09392
-7.55715
-7.78625
-7.31415
-7.98112
-8.01409
-7.76286
-7.75538
-7.91057
-10.2174
-10.0311
-10.0673
-9.98375
-11.3092
-9.89266
-9.735
-9.09857
-9.94686
-10.4235
-9.42056
-10.1521
-9.95986
-10.0664
-9.89632
-9.93232
-9.91601
-10.0158
-10.2734
-10.0261
-9.98323
-10.1764
-9.91943
-9.72817
-9.95504
-5.92668
-5.751
-5.98779
-5.51927
-5.55998
-5.41396
-5.25724
-5.18708
-5.20077
-5.58038
-5.90426
-5.77137
-5.10546
-5.49562
-5.44485
-0.399445
-0.145056
-0.205089
-0.46789
-0.166495
-0.133959
-0.574599
-0.78107
-0.0153605
0.0254586
0.607847
0.220975
0.23252
0.659011
1.48327
0.603155
0.323424
0.871369
0.347287
0.444834
-0.0142627
0.168744
-6.09902
-6.95276
-3.89224
-4.40456
-4.48055
-5.56883
-6.4072
-5.86971
-6.54621
-5.90326
-5.95441
-7.78293
-7.89069
-8.05108
-8.01566
-7.94819
-7.71664
-7.75961
-8.11605
-8.29445
-8.16928
-8.38791
-7.58948
-7.88944
-7.94394
-8.15501
-7.92452
-8.01035
-13.6091
-12.3778
-11.9063
-13.6536
-16.3731
-15.9436
-15.7205
-15.2211
-15.0494
-14.1925
-15.6974
-3.43276
-3.96513
-4.55163
-4.43443
-4.0666
-4.18899
-3.60598
-4.45617
-4.4687
-3.98437
-3.97001
-0.192688
-0.068271
-0.259874
-0.334172
-0.079756
-0.0918682
-0.368009
-0.119463
-0.460794
-0.528861
-0.56922
-0.222263
-0.389666
-0.864271
-0.832652
-6.31951
-4.48135
-7.63741
-6.07204
-6.41945
-7.98595
-8.34526
-7.94567
-8.2517
-8.3305
-7.96166
-8.71038
48.4695
53.2566
41.8815
44.5283
47.3041
49.3404
49.0494
51.885
44.4093
48.8365
47.1374
48.1348
44.1648
48.6378
42.9631
44.4082
46.3228
41.3969
33.2209
32.7783
33.5209
34.2285
35.1494
36.1012
33.4578
34.0925
36.5313
39.9899
36.7432
36.974
38.681
24.429
21.6596
19.1679
20.8179
25.3334
22.0236
20.5914
22.0315
21.6482
19.7467
27.0304
27.011
20.2029
21.7512
19.1755
25.3512
27.4735
27.5647
23.6012
23.561
24.2043
25.5046
-9.78776
-10.2157
-10.4264
-10.4374
-10.5374
-9.97688
-10.0388
-10.1655
-10.2822
-9.92251
-10.3159
-9.94382
-10.0718
-10.0323
-10.1398
-10.1062
-28.7663
-31.267
-18.0745
-26.4263
-16.1684
-23.2153
-20.9742
-17.727
-16.3372
-21.4019
-35.3207
-30.7076
-21.374
-28.1759
-16.3858
-18.8735
0.799482
0.642253
0.807968
1.64951
2.0288
2.62902
0.45288
0.119504
1.77734
1.7531
2.63679
2.29111
2.01353
1.93219
1.77484
1.12226
0.385087
1.20109
32.3824
36.5101
35.0826
31.6018
32.9297
35.7034
39.203
38.2996
33.2455
39.2161
40.9212
39.1502
35.2809
32.0547
32.8572
33.8402
25.4881
24.8428
25.347
25.1247
24.2917
26.0546
26.6345
26.0253
25.3899
26.3385
25.7782
24.9647
25.8123
24.2404
24.9185
26.4448
26.9242
11.1721
11.021
10.7171
11.0761
11.0537
11.1164
11.2559
11.3119
11.3227
11.1885
10.8244
10.883
11.3776
11.0547
11.1678
10.4514
10.4761
-5.93746
-6.80028
-8.37011
-7.46784
-6.4888
-6.6498
-6.21845
-6.24266
-7.00339
-6.62118
-8.05588
-8.27212
-7.26325
-6.08969
-8.05673
-7.04707
-7.03091
-7.74566
-4.83652
-4.92569
-4.69085
-4.69033
-4.22798
-4.36529
-4.55935
-4.5364
-4.00883
-4.19708
-4.38216
-4.00107
-3.87292
-4.3502
-7.16557
-6.65273
-7.44427
-8.21921
-8.31334
-7.72285
-7.54498
-7.40265
-7.24606
-8.34097
-8.29044
-8.2112
-7.68296
-7.06905
-7.42198
-8.21759
-8.27747
-8.48297
19.8064
15.5461
16.3804
23.2055
19.5197
13.6164
16.5184
16.7858
13.2334
21.6388
16.7177
13.8432
-8.55761
-8.31792
-8.1911
-7.97744
-8.25859
-8.22279
-6.88915
-7.254
-8.40953
-8.47717
-8.35575
-7.51363
-7.42081
-8.09077
-8.28696
-8.11821
-5.48595
-6.04358
-5.02033
-5.4873
-6.80209
-6.71861
-6.82662
-5.63109
-5.36878
-5.21275
-5.19916
-6.12752
-6.7985
-5.61202
-5.18396
-6.02898
3.39932
2.63553
1.97042
5.1841
6.07786
3.65691
4.35702
1.1151
2.69927
3.38719
4.98363
3.89913
4.95697
5.76872
5.50441
2.42398
2.52689
3.81591
1.91071
-3.46358
-2.5643
-3.30902
-4.95487
-4.0528
-3.00396
-4.69759
-4.26547
-3.40865
-3.71507
-3.48533
-4.66472
-3.52689
-3.18257
-1.98077
-1.65009
-1.77196
-2.43733
-1.972
-2.31269
-2.04785
-1.91452
-2.49862
-1.79498
-2.2245
-2.16139
-2.75556
-1.71664
-1.80358
-1.77697
-1.58561
-2.24099
-5.14942
-5.77213
-4.86105
-3.50811
-3.96499
-7.64015
-5.10439
-4.81188
-4.79913
-5.91639
-7.36416
-9.35839
-9.61447
-10.0416
-9.52471
-10.3876
-10.8254
-10.2859
-11.4083
-8.67353
-8.64413
-10.9838
-11.489
-11.3603
-10.582
-10.211
-11.3015
-10.5657
-10.348
-10.7957
-10.6372
-10.1171
-10.4933
-10.5701
-10.3368
-10.5218
-10.2316
-10.3626
-10.416
-10.309
-10.1317
-10.1702
-10.3601
-10.1623
-10.2997
-10.2035
-10.2991
-10.2265
-10.2709
-6.96501
-7.45861
-8.98423
-8.7498
-7.82927
-8.42149
-8.77155
-8.41416
-7.95906
-8.68309
-7.79289
-4.39755
-4.77629
-3.19033
-3.07519
-4.29174
-2.95876
-3.26065
-2.82495
-4.0512
-3.64598
-3.41585
-3.04402
-3.8175
-3.50156
-3.29084
-3.19996
-3.55682
-3.47691
-2.88425
-3.42198
-3.20176
-3.5523
-3.5321
-3.1247
-3.12806
-3.24696
-2.86926
-3.18369
-2.99574
-2.79471
-3.07197
-2.72122
-2.99462
-3.15358
-2.82004
-6.42244
-6.67945
-6.5007
-6.49341
-6.15214
-5.60152
-6.46476
-5.3884
-6.16084
-4.98969
-5.74001
-6.13545
-6.23708
-5.88804
-5.69922
-7.01933
-6.07237
-5.53501
-5.29746
-5.26407
-6.89401
-7.00292
-7.23944
-7.25146
-6.57144
-6.60508
-7.50419
-7.23361
-7.01492
-6.30338
-6.51749
-6.49876
-6.2484
-6.60472
-6.69909
-6.99137
-6.11903
-6.2658
-6.6942
-7.00041
-6.17932
-6.37467
-7.15423
-8.07013
-6.73595
-7.33414
-7.18135
-8.47803
-6.6333
-6.52611
-6.48802
-7.26485
-7.8713
-7.27076
-7.72846
-6.77727
-6.62058
-7.38382
-6.95612
-6.40855
-5.99212
-7.352
-6.70738
-7.54512
-8.50381
-7.93986
-7.6026
-7.12699
-7.01119
-7.98138
-8.16206
-8.6845
-7.4378
20.7809
21.3478
22.3091
21.246
22.0702
20.8235
21.8818
20.6827
21.2508
22.2726
-9.56667
-9.41007
-9.14869
-9.19485
-9.68615
-9.64208
-9.23919
-9.38094
-9.65586
-9.10036
-9.4281
-9.25767
-9.23045
-9.62709
-9.28768
-9.50609
-9.60954
-10.6525
-10.0738
-11.0201
-10.7889
-10.4625
-11.1717
-9.97357
-10.7623
-9.90571
-9.73681
-10.7381
-11.003
-9.76407
-10.7649
-10.9788
-10.4326
-10.1044
-11.123
-10.3561
-10.3975
10.5986
11.0051
11.7044
11.1079
10.7875
11.9312
8.48682
10.0431
10.2701
9.95118
9.25449
11.3711
10.8138
11.3631
10.4754
10.0523
-15.0894
-16.3616
-15.4053
-14.7831
-14.8436
-12.9644
-13.6395
-14.5698
-14.9129
-15.4726
-11.7283
-12.9953
-14.4508
-11.2712
-12.2848
-10.3722
-10.0738
-10.1692
-11.1678
-11.2071
-11.9373
-10.2787
-9.71387
-9.50881
-10.6145
10.8081
9.77322
9.41496
9.51155
9.51964
8.03466
7.70312
7.12
7.19322
7.7442
7.85707
6.94107
8.67457
7.79662
9.509
9.61807
7.67081
8.78786
8.37716
-9.15813
-9.07947
-9.7313
-9.0016
-10.5697
-9.33148
-8.86301
-9.32768
-9.63389
-9.11873
-9.07719
-9.64371
-10.0066
-10.44
-9.91905
-9.3307
-9.16997
-10.0205
-9.88315
-8.20301
-9.03098
-8.37895
-8.48394
-8.43041
-8.59116
-8.25443
-7.90471
-8.97933
-8.96959
-9.02886
-8.51919
-8.8286
-8.83943
-9.06597
-9.09105
20.0056
20.58
19.8776
19.6783
20.9237
21.8299
21.623
20.6809
20.6839
21.5249
21.7172
20.776
21.6657
22.215
22.8983
22.3246
-13.0769
-15.0621
-11.6383
-11.7206
-15.5827
-18.2316
-8.64582
-9.68688
-11.8065
-14.194
-11.4306
-12.1928
-13.7346
-17.9771
-16.3421
-10.1202
-14.4736
-11.8014
-14.8081
-17.174
56.9029
50.9372
46.6264
46.2937
55.3804
56.6706
50.1733
54.9835
49.1656
51.1652
48.7454
49.2111
46.0169
45.8824
51.6041
19.368
18.0434
22.6849
24.314
22.1628
19.1338
24.5278
21.0835
23.5119
26.784
25.6888
26.9329
28.6984
26.4804
-15.6438
-16.3815
-15.9316
-16.6872
-14.776
-15.041
-13.4078
-12.2619
-14.6239
-14.567
-12.7397
-12.2687
-15.0643
-13.3306
-13.004
-13.6322
-5.95797
-5.66991
-5.73471
-5.90074
-5.66478
-5.97456
-5.60877
-5.96341
-6.14048
-5.49017
-5.53793
-5.50581
-6.06711
-5.89497
-5.57049
-5.76093
-5.69983
-6.03337
-5.83496
-10.5937
-10.4611
-10.0764
-11.0326
-11.147
-10.8233
-10.1912
-11.0722
-10.9397
-9.47158
-10.0823
-9.95489
-10.3053
-9.98697
-11.2027
-10.8507
-9.92169
-10.3511
-10.0532
-10.1847
-9.87001
-9.93608
-10.3631
-9.79191
-9.94914
29.1028
28.2635
28.3237
28.7796
28.9542
28.5545
28.3336
28.3715
29.0871
28.8787
28.9414
28.6851
28.7773
28.5513
28.8751
28.9371
28.9538
28.7447
28.3899
29.0287
-7.83316
-8.64085
-7.77513
-8.26711
-7.75191
-7.44636
-7.59758
-8.36763
-7.37501
-7.67319
-7.87182
-8.06173
-5.01055
-5.0987
-4.69043
-4.55264
-4.35961
-5.07196
-5.06955
-5.20048
-4.96357
-4.53722
-4.51617
-4.8232
-4.8616
-4.50681
-4.65095
-4.59807
-4.7749
-4.63264
-3.20654
-3.01575
-3.27076
-3.00669
-3.16101
-3.52407
-3.60631
-3.73312
-3.79694
-3.05989
-3.51395
-3.17773
-3.84375
-3.68186
-3.34594
-3.1848
-3.84011
-3.50468
-3.11427
-2.47744
-2.61908
-2.78465
-1.95914
-2.51693
-2.23237
-2.0453
-3.05407
-2.52616
-3.12265
-3.09146
-2.22694
-2.19057
-2.39748
-3.20646
-3.18808
-6.91761
-6.60078
-7.04816
-6.70131
-6.11961
-5.9537
-6.03232
-7.18292
-7.44951
-9.99496
-9.77912
-9.77775
-9.96814
-10.076
-10.0873
-9.89462
-10.1798
-9.86736
-9.80158
-10.0506
-9.85688
-4.84279
-4.69042
-4.87522
-4.87298
-4.78545
-4.98687
-4.92298
-5.12957
-5.12349
-4.91079
-5.37894
-5.31467
-5.27659
-5.3744
-5.18357
-5.35867
29.4704
29.6754
29.4096
29.1486
28.7889
28.8499
28.3851
28.3265
28.6032
29.1458
-7.83298
-7.61904
-7.8591
-7.62065
-7.92456
-7.8032
-8.07507
-8.03667
-8.1684
-8.1778
-7.92764
-7.77352
-7.97231
-8.31007
-8.24435
-8.02133
-7.98574
-7.94683
-5.77517
-6.07096
-5.68492
-5.7738
-5.72379
-5.69092
-5.92671
-5.71793
-5.86764
-6.29915
-6.05092
-6.1114
-5.87402
-6.05884
-5.64006
-5.74162
-5.94475
-5.73878
7.64569
7.01709
6.43124
7.41324
5.5746
5.02127
8.04421
7.51376
6.19393
7.72208
6.73284
5.81219
6.56572
6.60181
29.3967
29.2953
29.1713
28.9985
29.45
29.0381
28.8565
28.8908
29.2003
29.0148
29.192
29.3173
28.8853
28.8521
28.7401
28.7818
29.164
28.9577
29.1072
28.8729
41.8331
40.4132
33.714
36.851
26.2524
30.6237
16.077
31.817
31.9238
29.2937
34.9642
25.0776
36.6862
41.7587
37.6414
45.0599
26.8589
38.0395
33.5655
-11.3222
-12.0332
-8.09529
-6.84591
-12.1406
-14.9708
-14.8236
-17.5667
-7.76159
-8.00815
-19.7551
-15.9777
-9.96039
-13.8263
-16.3646
-10.9921
-11.2494
-16.8881
-13.6328
-14.0318
-1.58492
-2.20451
-2.09946
-2.25611
-2.63473
-1.84626
-3.19047
-2.4641
-2.49136
-2.4288
-2.30601
-2.21826
-3.02298
-2.14352
-3.21812
-3.03531
-2.92226
-2.8651
-2.19754
-11.1226
-11.5419
-12.762
-12.9379
-13.2518
-12.8355
-11.4268
-11.8328
-12.5467
-10.1424
-11.9411
-12.1837
-11.5967
-12.2074
-12.1192
-12.0481
31.1741
31.1249
30.9915
31.0679
31.3396
31.3566
31.234
31.2621
31.0726
30.9379
31.4549
31.231
31.396
31.3914
31.0176
30.9388
31.1055
31.2753
31.4064
31.0036
-1.26772
-1.41573
-0.850719
-0.432655
-3.3692
-3.45601
-3.88545
-4.74237
-2.64702
-1.25233
-0.878
-3.3728
-3.71868
-4.24595
-4.97508
-4.85981
-2.53963
-4.35826
-4.11067
-3.0503
31.311
31.1965
31.2794
31.3223
31.3117
31.331
31.2541
31.3849
31.449
31.4571
31.5245
31.2322
31.3998
31.3702
31.4799
31.4625
31.3471
-5.57142
-5.52509
-5.62318
-5.86602
-5.82371
-5.54899
-5.33109
-5.65815
-5.74367
-6.03623
-5.35689
-4.9474
29.3734
29.1901
29.7403
29.7431
29.4981
29.4444
29.1024
29.3173
29.5422
29.7051
29.745
29.3743
29.2086
29.327
29.1256
29.3274
29.1229
29.3894
29.4555
29.1144
29.3583
22.8877
22.4478
22.5449
22.9637
23.0049
22.167
22.5575
24.2118
24.3842
24.1703
23.4708
23.1129
22.7415
22.6759
22.7081
23.3988
23.2881
23.291
8.24431
8.5005
8.58816
8.16892
8.42937
9.13523
8.78301
8.82317
8.56457
9.72261
9.55629
9.80171
9.63198
8.70168
8.43124
49.5045
44.4328
38.6192
40.0499
46.3893
44.4324
55.8551
41.2659
48.1457
43.05
55.4488
55.2262
50.9509
44.2478
-3.11354
-2.78116
-3.34787
-3.86244
-3.77494
-4.00241
-3.13942
-3.32175
-3.43049
-3.19774
-3.84985
-3.50485
-3.19171
-2.72961
-2.87521
-3.33696
25.072
23.0232
24.652
22.8575
22.5279
22.9118
23.2406
23.2956
24.1436
24.55
26.9926
26.4836
25.514
27.8061
28.3931
25.8197
26.8554
30.5704
30.5296
30.126
30.2261
30.3289
30.3824
30.6031
30.6403
30.0917
30.2096
30.5503
30.5775
30.5334
30.4107
30.3669
30.5336
30.338
-14.435
-12.016
-12.0492
-15.2482
-11.1276
-16.6865
-22.2095
-11.3164
-14.1073
-15.046
-13.9706
-13.5768
-14.6412
-11.6933
-17.0468
-17.0612
-14.1941
-15.2473
17.561
17.2183
18.843
18.5152
17.7992
16.494
16.8944
18.4585
18.9505
18.5493
18.2992
18.609
16.9155
16.6641
16.021
17.842
16.7031
17.3249
16.2881
17.8038
17.1016
16.8632
-5.77531
-5.95301
-5.8024
-5.57839
-5.26843
-5.38419
-4.16329
-4.59786
-5.58704
-6.35179
-5.73263
-5.88137
-4.79273
-5.0451
-4.81712
-4.65713
-4.49206
-5.0292
-4.3605
-4.43055
-4.86546
-4.71554
-4.46567
-4.76224
-5.06369
-4.85103
-4.93618
-4.21236
-4.2518
-4.1542
-4.32323
-4.29523
-4.99776
-4.94952
-4.896
-4.61987
-4.24815
-4.69713
-5.50001
-5.37316
-5.43573
-5.58521
-5.80871
-5.85751
-5.3644
-5.72991
-5.34598
-5.51271
-5.25261
-5.72597
-4.93429
-5.25104
-5.04792
-5.78737
-5.41628
-5.06054
-5.77668
-8.27956
-8.5293
-8.15147
-9.72743
-7.34727
-6.00713
-9.29607
-9.27631
-3.84762
-4.73013
-2.55824
-6.30066
-4.01105
-6.55088
-5.98252
-7.89547
-7.52507
-5.63212
-5.33963
-1.82187
-3.93476
-2.67576
5.86662
4.24561
3.56848
4.06451
4.65171
6.2579
6.13781
5.1017
4.37747
3.5498
3.93839
4.07269
3.71998
4.76868
4.63074
5.70882
4.49777
3.75894
4.40666
-8.39631
-7.95444
-8.14203
-8.20497
-8.33922
-8.37248
-8.5525
-8.86192
-8.35377
-8.94462
-8.44626
-8.25435
-8.30427
-8.23163
-8.29281
-8.2456
-8.29769
-5.18719
-5.35736
-6.73546
-6.27244
-6.0355
-6.30626
-6.49579
-6.20047
-5.62977
-6.38569
-5.84226
-6.41563
-6.08554
-6.17374
-3.37921
-3.96611
-4.34056
-4.51042
-3.95619
-4.29781
-3.32558
-4.40959
-4.64832
-4.95996
-4.97369
-3.32928
-4.37691
-4.5995
-4.49729
-3.60496
-4.50967
-0.216145
-0.480102
-0.257887
-0.0563658
-0.175212
-0.293951
-0.340991
-0.368397
-0.0846964
-0.25418
-0.523481
-0.479387
-0.77617
-0.674788
-0.193751
-0.360705
-0.7838
-0.696327
-0.721893
-0.663823
-0.327405
-0.112706
-0.70882
-0.0409589
-0.269837
-0.303201
-0.426842
-0.626262
-0.35494
-0.235699
-0.245368
0.0270374
-0.0518292
-0.295837
-0.605708
-0.223067
-0.284356
-0.587697
-0.123108
-0.281638
-12.4026
-13.5413
-16.1538
-17.1025
-16.5208
-17.3983
-13.229
-14.3573
-15.0647
-11.1469
-13.112
-13.8156
-15.448
-14.7813
-14.343
-13.3122
-13.0241
-0.618526
-0.617084
-1.01011
0.28551
-0.358212
-1.23755
-1.50224
0.348761
0.0630335
-0.894339
-9.03617
-9.03674
-9.12423
-9.32888
-8.76211
-8.77106
-8.98138
-9.27546
-9.28585
-9.18003
-9.02126
-8.78621
-8.82735
-8.81248
-8.68051
-8.96947
-8.87619
-9.05113
-8.03135
-7.99593
-8.11082
-7.73702
-8.15816
-7.85482
-7.905
-7.82766
-7.56811
-7.67628
-8.23258
-8.31117
-8.02514
-0.598891
-0.355509
-0.776838
-0.467569
-0.878845
-1.24677
-0.921137
-0.275049
-0.159473
-0.578375
-1.02844
-0.975494
-0.182372
-0.182378
-8.63479
-8.60546
-8.84475
-8.74768
-8.58746
-8.63436
-8.78097
-8.69218
-8.70951
-8.70905
-8.68929
-8.83978
-8.68865
-8.56445
-8.98469
-18.4409
-17.6795
-17.0097
-17.3494
-17.5761
-16.3269
-19.42
-18.4249
-18.1264
-18.704
-18.943
-18.6178
-17.6349
-17.5027
-17.5519
-18.0911
-18.3007
-18.52
30.2229
30.2188
30.4738
29.8217
29.9357
29.8966
30.005
29.826
30.1457
30.1233
-8.72667
-8.77016
-8.74975
-8.97689
-8.70375
-8.98872
-8.68076
-8.76836
-8.57058
-8.65348
-8.66601
-8.88938
-8.95355
-8.77946
-8.99817
-8.66393
-8.76965
-8.79681
-8.58305
-8.74369
-8.79302
-8.78022
-5.32956
-5.22668
-5.56784
-5.61935
-4.7815
-4.60462
-5.36156
-5.23905
-5.35753
-4.87113
-4.51163
-4.71759
-5.31028
-5.07875
-4.95642
-4.9449
-5.15825
-4.72486
31.8813
32.8502
34.1137
32.8086
31.3905
33.8659
32.042
32.9866
29.3035
31.1768
32.7455
29.9296
30.2554
29.0078
27.7354
30.8472
28.6601
27.5231
28.5944
32.1111
29.9068
28.9919
26.3665
31.6662
32.4473
33.8524
33.2989
37.6351
36.82
34.1757
36.7068
30.0173
29.1867
37.505
38.4564
35.2061
37.7754
31.1787
31.2936
31.3501
31.1611
31.2678
31.1607
31.3372
31.2867
31.134
31.2641
31.0793
31.116
31.3376
31.2752
31.2784
31.3369
30.7824
26.5866
26.1556
28.5006
29.6242
31.4835
29.4439
29.5319
25.8264
25.1363
29.8246
27.6678
29.228
26.4595
28.558
26.3155
26.0463
27.3229
27.9048
26.7915
27.4795
28.5868
28.4237
27.7055
26.965
28.6176
29.0167
28.4973
23.3651
22.9401
25.1534
26.5515
14.6903
13.6949
23.7291
23.6053
14.3872
16.6107
19.1473
19.1343
20.7583
18.2498
15.8702
13.7441
29.0952
28.2561
28.6149
29.1304
28.3311
29.6544
29.2511
28.4523
28.4695
31.3087
30.8786
30.5567
30.0055
28.8896
30.0239
29.4597
30.5152
29.9013
29.2495
30.7976
8.96685
10.7439
5.47088
2.52325
3.74879
6.57322
13.8811
5.60467
9.52593
9.48161
3.15673
8.22685
8.93221
5.79626
8.82235
15.4579
15.5401
14.0043
12.0089
10.3534
19.3285
16.467
16.5182
13.6899
17.6619
17.7731
17.7491
15.096
13.646
14.7559
14.8906
15.6323
15.9566
30.4576
30.5044
30.3128
30.2078
30.8776
30.85
30.4156
30.257
31.0305
31.0382
30.4734
30.7601
31.0197
30.9862
30.8806
-10.3389
-9.98892
-10.3776
-10.406
-10.8872
-9.80867
-9.8736
-11.6127
-11.2534
32.8521
31.9791
30.9716
30.9202
31.6555
31.0428
33.2725
30.7261
34.4961
33.0561
30.8467
32.7027
33.3383
33.6934
34.1638
29.9527
30.259
32.0368
34.1983
32.869
30.4413
31.3168
4.85469
5.55961
4.93068
2.95753
3.99242
4.93809
1.82063
3.0938
3.39746
1.28801
2.47934
0.425326
1.30848
0.198727
-0.249026
0.532049
1.76657
3.36563
-0.559866
2.23448
29.2994
27.6189
32.3377
27.8397
29.7225
36.2042
33.4741
29.64
33.4022
28.9116
31.3544
37.2304
35.0575
35.7936
39.2283
32.5549
31.8677
30.1194
34.6033
28.5582
31.7518
29.4854
33.3353
37.7845
38.6893
36.7678
-8.40643
-9.31318
-8.98228
-8.42251
-8.80014
-9.28508
-8.94118
-8.64555
-9.73452
-8.67786
-8.8612
-9.11479
-8.65987
-8.38164
-8.32509
-8.76088
-8.55974
-9.09819
-8.7668
-8.3148
-8.35854
-8.45659
-8.47399
-8.79072
-8.47351
-8.77057
-6.5388
-6.29975
-6.99937
-7.49141
-6.45548
-6.6793
-6.41718
-5.54978
-7.36831
-4.84017
-7.24116
-6.07526
-5.61809
-6.2184
-7.08283
-7.08854
-6.60017
-6.33387
11.2925
10.8042
7.38819
9.34003
8.006
6.07421
2.79022
7.39174
7.67425
5.28729
0.445191
4.1324
5.5644
26.5696
27.3625
27.7057
26.3346
28.0044
27.7787
28.1708
27.3039
27.4349
26.428
26.6053
28.5021
27.8711
-11.2706
-11.0733
-12.0305
-11.4116
-11.466
-12.0623
-13.2765
-12.8494
-14.1345
-12.109
-12.2425
-12.0949
-13.1936
-10.4175
-9.11219
-8.97646
-9.37359
-9.54298
-10.0548
-10.0231
-10.2229
-9.06813
-9.1619
-9.60892
-9.11169
-8.82765
-9.15666
-9.15016
-8.39748
-8.25104
-8.41772
-8.31846
-8.41617
-8.28204
-8.16976
-8.24644
-8.14461
-8.4263
-8.359
-8.55879
-8.36783
-8.24699
-8.17015
-8.16388
-8.9963
-8.6469
-8.59815
-8.45562
-8.56432
-8.46889
-8.44443
-8.81028
-8.51509
-8.43524
-8.67914
-8.68242
-8.61929
-9.1832
-6.40371
-7.66151
-7.92083
-6.11693
-7.01552
-7.52838
-8.18044
-6.22893
-5.9976
-6.62369
-6.84957
24.0574
25.6472
24.7352
25.8779
25.1227
26.0228
25.1277
24.3688
25.5185
24.6176
25.9898
23.7844
25.3382
33.8046
36.6993
39.0444
47.3714
45.1842
33.6766
50.8497
50.0272
37.1132
42.778
35.2955
37.4811
45.812
49.7585
52.5358
40.8062
42.6587
39.386
49.1227
47.0924
45.2671
42.2815
34.8101
34.8486
34.769
33.496
33.2275
31.9403
32.3646
32.8364
32.14
31.1255
31.2239
21.0245
20.3535
20.0691
19.6465
22.1481
21.6397
19.938
21.3567
20.5496
19.632
18.8287
19.0914
20.8274
22.2564
22.4402
19.6535
19.0928
21.3888
18.5336
32.6698
32.9586
32.8408
32.8356
33.5794
33.4107
33.1948
33.0221
33.0191
33.4228
34.1809
33.8841
34.3186
-8.97912
-4.72786
-2.18248
-6.11879
-4.12883
-0.0552679
-0.218446
0.266087
1.19356
-3.28105
-0.937944
-8.99583
-12.3362
-3.42069
-0.118414
-6.7023
-4.19638
-12.6274
-7.54179
-13.3339
-6.25825
-8.20995
-8.07593
-8.25395
-8.29599
-7.97052
-8.1298
-8.36976
-8.61996
-8.2835
-8.21047
-8.5945
-8.42391
-8.16157
-8.23779
-8.19354
-8.24966
-7.97141
-8.27899
-9.27134
-10.3419
-8.60196
-8.08767
-8.40163
-9.64802
-8.9991
-8.98465
-8.06015
-8.92168
-10.2249
-11.7229
-9.70617
-9.42303
-7.75857
-6.20681
-8.08159
-7.32798
-6.5512
-8.38641
-9.51918
-7.36013
-6.22037
-7.26833
-6.21171
-7.69794
-6.69229
-3.22578
-3.69856
-3.95363
-3.8177
-4.17609
-12.0742
-14.2854
-12.7298
-14.1236
-18.4797
-12.0167
-15.8055
-19.199
-18.5612
-22.7114
-23.7895
-20.4805
-19.9184
-20.5321
-16.0339
-2.16966
-2.79332
-2.65068
-3.73376
-3.38279
-3.08915
-3.47187
-2.84778
-3.37451
-2.17906
-1.89644
-3.25753
-3.20007
-2.49531
-1.33235
-2.23247
-3.17933
-2.43981
16.3857
14.3517
10.1557
17.3132
3.99413
-6.63824
16.5814
6.61931
15.6436
9.55664
10.8148
-19.7594
-12.1527
-30.9877
4.47082
4.02412
1.07009
-9.22003
-1.94682
3.46356
-18.8301
-18.3921
-18.4795
-16.9587
-17.334
-16.1948
-16.0831
-15.882
-17.2833
-17.4852
-15.4727
-16.139
-16.6538
-15.7449
-11.8135
-10.1362
-10.9375
-12.6582
-8.32865
-9.05906
-10.468
-12.6638
-10.2433
-9.90466
-12.6309
-11.4242
-7.5852
-8.31427
-7.50001
-8.12205
-8.17006
-8.48569
-6.85457
-7.91741
-7.08705
-9.77768
-13.0788
-8.42253
-14.1125
-12.2393
-14.1211
-13.5081
-4.168
-4.69034
-4.45521
-6.57557
-8.59892
-9.04048
-10.7513
-10.9458
-5.67408
-8.50384
-5.91708
-6.07908
-2.6083
-4.31038
-4.52492
-4.14739
-0.797328
-1.00504
-2.03113
1.01278
1.03864
-2.44824
-4.70293
-1.78042
-0.661726
0.87142
1.42616
-3.11094
-0.637591
-0.968376
-2.4857
-1.23521
12.6666
13.281
10.3845
10.7795
13.3504
11.4945
11.0485
11.6433
12.178
11.617
10.5791
11.1978
11.2973
10.3787
13.208
-10.2951
-7.28019
-8.4324
-8.95294
-10.2077
-9.45765
-7.43511
-9.9903
-6.50017
-6.15627
-6.75928
-6.74339
-6.81583
-7.14458
-7.10808
-6.45917
-7.06089
-7.16182
-6.67543
-7.34711
-8.19308
-7.78232
-6.57105
-6.65099
-7.85375
-7.70686
-7.85875
-6.96636
-7.60567
-6.50333
-7.0006
-6.10493
-7.3939
-7.00719
-7.53827
-6.80853
-6.54505
-7.16699
-9.29644
-9.04268
-9.56002
-9.32116
-9.1432
-9.56495
-10.1593
-11.4871
-10.8259
-10.1767
-9.81187
-10.5217
-10.4528
-11.2774
-10.7717
-9.97994
-10.4259
-10.733
-1.80967
-1.58272
-1.5848
-1.80056
-1.93319
-2.01251
-1.5886
-1.6054
-1.95603
-2.02793
-1.82883
-2.16363
-2.56835
-2.62497
-1.70338
-2.21957
-2.03255
-1.82121
-2.60667
-2.4671
-2.04846
-1.83614
33.468
33.116
33.5924
33.2209
32.6528
33.3164
33.8319
32.7292
32.8577
32.7508
32.1732
31.8774
32.0965
33.088
32.5937
32.3542
-15.8497
-15.1435
-14.5508
-15.7822
-16.4492
-15.5036
-13.36
-13.7718
-13.2323
-15.7431
-14.0889
-13.5552
-14.8914
-13.3507
-16.2775
-14.8701
-15.7063
-17.1443
-5.36658
-5.57282
-5.02261
-4.85238
-5.27644
-5.38489
-5.53569
-4.88554
-4.82225
-4.51469
-5.61816
-5.73778
-5.19049
-5.59644
-5.00692
-5.52956
8.88844
9.62025
11.291
9.70998
8.39099
10.562
8.96782
11.0089
11.5145
9.6821
10.2365
9.93092
9.68944
11.2695
9.19377
7.74787
9.12096
7.57817
7.99525
9.01171
5.69733
3.90645
1.14412
0.985167
-0.472977
-0.392381
3.53481
-1.55569
9.10727
7.97216
-3.2449
2.67198
7.57329
6.08289
-0.184714
3.44884
-10.603
-10.3778
-10.3657
-10.1691
-9.90099
-10.2279
-10.0929
-9.9786
-9.88302
-9.02673
-9.02716
-9.36476
-3.87761
-3.77028
-3.96079
-3.45552
-3.64396
-3.86821
-3.98089
-4.04454
-3.32837
-3.48499
-3.6401
-3.48784
-4.07624
-3.62817
-3.31928
-3.43944
-3.77347
-9.04022
-9.2367
-8.82329
-8.85278
-8.91113
-9.33227
-9.26648
-8.8604
-9.19236
-8.86807
-8.8803
-9.03055
-9.33997
-9.6062
-8.91755
-9.21701
-9.65082
-8.84247
-5.44233
-6.95457
-6.33521
-5.65859
-7.09494
-6.79458
-5.17994
-5.82153
-7.25363
-4.60578
-4.43532
-5.29058
-4.75971
-5.48368
-4.65428
-4.86255
-5.25308
-5.46198
-6.53708
-5.93803
-7.2555
-7.1524
-4.37159
-4.53925
-6.21258
-5.91086
-4.84691
-5.29273
-6.78313
-6.66832
-5.38233
-5.12429
14.473
14.1378
8.66241
11.5147
13.3918
14.2085
14.0568
12.7443
9.8525
12.7371
9.59467
12.1312
11.9978
10.5415
33.8108
33.4443
32.3222
32.5258
32.5507
32.8963
33.5597
33.2685
32.236
32.4486
32.3292
33.0178
32.8361
33.3845
-1.48326
-1.33645
-1.8581
-1.82562
-1.75121
-1.95267
-1.61018
-1.77516
-1.58031
-1.94359
-2.07623
-1.93431
-1.47082
-1.65117
-2.0281
4.2486
4.629
7.32588
7.40487
4.06233
5.35003
5.38412
5.83439
7.11855
7.36114
3.28855
3.59253
4.13531
4.74926
5.93539
4.53088
5.3962
-5.06173
-5.23379
-5.79436
-5.94302
-8.03163
-7.09933
-5.13234
-5.02096
-7.43504
-8.32008
-6.31004
-5.61656
-6.51736
-6.19932
-6.00914
-5.14808
-6.18112
-7.38913
-6.88411
-6.44617
-7.41125
-5.82954
-8.06884
-7.46101
-7.40643
-7.76486
-8.70939
-9.23006
-8.05196
-7.88797
-7.92597
-8.81087
-8.47116
-8.47401
-8.37429
-8.81974
-8.26492
-7.22807
-7.28611
-7.19366
-7.2779
-7.02884
-7.05858
-6.9054
-7.04201
-6.9009
-6.59823
-6.77192
-6.8276
-6.7765
-7.09554
-6.6667
-6.75415
-8.9585
-9.02986
-9.18038
-9.22272
-8.43714
-9.09771
-8.27952
-9.07228
-9.00523
-8.87948
-8.55304
-8.31285
-7.71017
-8.09432
-7.74198
-8.51665
-8.60626
-8.55511
12.4368
12.5334
11.5335
11.1901
8.43716
6.58664
13.527
12.7575
5.75734
13.7267
11.2097
9.86456
7.15935
9.88031
12.1662
12.7837
11.4527
7.56234
8.82982
8.35526
7.17629
7.16377
8.42397
9.09126
7.8706
10.7298
10.5547
10.7324
9.07681
10.4633
9.60264
8.18248
27.4457
26.8222
26.1388
27.1656
28.3872
27.0681
28.5982
28.6313
27.1859
26.4355
25.5242
27.0828
25.9284
29.7481
28.7485
-5.55716
-5.29201
-5.0603
-4.50698
-5.716
-5.34475
-4.69222
-4.64514
-5.1702
-4.77707
-5.19865
-4.29919
-4.53491
-4.11404
-4.17313
-4.73618
-6.95535
-6.89552
-7.48038
-6.66789
-6.6072
-6.40764
-4.73152
-6.30423
-6.44059
-7.04364
-4.47769
-5.30134
-6.09501
-26.1747
-19.7248
-18.0255
-12.2368
-26.139
-31.5321
-7.49299
-14.9422
-11.5618
-17.1022
-18.59
-23.2765
-20.6799
27.4409
26.351
30.1342
27.6146
28.909
30.4174
28.4344
25.8157
23.7313
24.954
27.5213
28.9844
27.9955
19.8456
21.7152
27.9171
27.4391
21.4511
19.9225
22.4485
8.44806
8.31544
8.11628
7.2268
8.19603
7.57883
7.26993
7.93297
8.23933
8.18562
7.74839
8.5306
8.3194
7.89719
-2.81683
-2.34757
-2.54173
-2.79665
-2.37084
-2.84309
-3.06348
-3.1613
-2.82104
-2.96546
-3.1343
-3.34806
-3.05962
-2.3817
-2.5265
-2.26277
-2.23804
-2.78986
-9.05668
-8.88084
-8.79734
-8.98288
-9.81195
-9.629
-9.06172
-9.56008
-9.15872
-9.76326
-8.39446
-9.08659
-10.1432
-8.33598
-9.01608
-8.74828
-9.47685
-9.29197
-9.31244
-8.59209
-3.64441
-3.17219
-2.95728
-3.34561
-3.36138
-8.29186
-8.00371
-9.50551
-9.29939
-8.47964
-8.99304
-8.29434
-8.51782
-8.61107
-8.88413
-8.02683
-8.93332
-8.38315
-8.14089
-9.76131
-9.50528
-9.71932
-9.37885
-9.59925
-9.09811
-10.3243
-9.98476
-9.58457
-10.0874
-9.816
11.9496
12.291
12.3088
12.0058
11.4435
11.3197
11.7468
12.1805
12.725
12.7247
12.1451
30.8515
31.4473
29.8755
29.8183
30.7148
31.9201
32.4381
30.8926
30.8032
33.1614
32.0977
34.7229
30.7839
30.114
32.0005
13.1175
12.3373
9.42466
10.7861
10.2322
11.6091
9.94289
8.51305
8.70864
9.99554
11.6409
10.713
12.0908
8.86293
9.34792
10.7852
7.22186
7.2489
9.2716
6.79404
5.52543
23.7701
24.7874
24.2195
23.1925
23.6482
23.0052
20.4383
19.4601
17.8151
18.3741
18.7085
18.5586
21.5224
21.5425
19.5109
20.131
22.4234
38.7757
40.9309
41.3543
38.8143
37.9351
39.6455
38.8657
39.5739
40.9124
38.1648
41.8419
38.6433
37.673
44.3218
42.9116
42.8089
39.4711
42.5089
43.4818
39.9151
-0.853531
-0.128459
3.56281
2.42295
8.91367
-0.31094
1.18096
6.36924
4.43873
6.90117
12.1362
11.5359
6.30959
9.78394
-10.5219
-10.4326
-10.285
-10.1767
-10.4716
-10.5601
-10.2716
-10.1787
-10.3321
-10.0367
-10.1672
-10.0629
-10.0523
-9.98549
-8.57267
-8.27042
-8.18549
-8.53307
-8.10784
-8.50059
-8.14701
-8.58842
-8.32744
-8.47832
-8.3529
-0.20115
-0.172779
-0.482417
-0.552229
-0.931062
-0.22524
0.0163944
-0.477007
-0.306156
-0.533532
0.0504367
0.0341961
-0.235265
-0.00637494
-0.826638
-6.58846
-6.68478
-6.68611
-6.81583
-6.67424
-6.89049
-7.03617
-6.75859
-6.93512
-7.45338
-7.49201
-7.32226
-7.32741
-6.92907
-6.73047
-6.7663
-6.91426
-6.78709
-8.99527
-11.8708
-8.7802
-10.1393
-8.91946
-11.9123
-10.4986
-9.75783
-8.1021
-9.20852
-10.681
-8.01285
-9.82135
-10.4745
-9.90779
-10.9485
-9.71358
-10.0058
-7.17646
-10.0028
-9.4363
39.3995
43.0571
41.6636
43.4777
39.3461
43.561
44.5913
41.9089
45.8902
47.6205
44.1113
36.0212
36.8358
41.3476
36.6581
2.75887
3.11536
1.12515
1.5363
3.44746
1.62977
3.93451
2.26576
2.18022
1.63413
21.3566
21.3113
21.9688
21.9755
20.5411
21.7876
22.3692
22.2451
22.2822
22.2067
19.7203
20.2579
20.0002
20.5362
20.1977
-14.8465
-14.2009
-16.3148
-16.0096
-15.5389
-15.4467
-15.4056
-17.4954