/*--------------------------------*- C++ -*----------------------------------*\
  =========                 |
  \\      /  F ield         | OpenFOAM: The Open Source CFD Toolbox
   \\    /   O peration     | Website:  https://openfoam.org
    \\  /    A nd           | Version:  10
     \\/     M anipulation  |
\*---------------------------------------------------------------------------*/
FoamFile
{
    format      ascii;
    class       surfaceScalarField;
    location    "10";
    object      phi;
}
// * * * * * * * * * * * * * * * * * * * * * * * * * * * * * * * * * * * * * //

dimensions      [0 3 -1 0 0 0 0];

internalField   nonuniform List<scalar> 
146459
(
-1.97438
2.67338
-1.36181
0.66281
0.809691
-1.23397
-1.55009
-3.21745
4.8161
1.07473
-1.14249
-1.26527
-2.25679
-0.940796
1.90674
1.29084
-0.421834
-1.83495
1.78365
-2.36013
-0.657489
6.62317
3.20992
-8.41455
-1.41853
-2.13032
3.58824
5.16525
-0.0628929
-2.56831
0.866925
0.760594
-2.6552
-1.74807
3.01394
1.44123
-25.3736
47.0916
-24.3425
2.62452
-27.6717
20.0675
-17.7694
27.982
10.5783
-16.7743
-21.786
54.6574
10.2051
-36.8805
-13.8565
-23.0605
9.24521
21.089
-6.65308
-3.85763
52.1489
23.5975
-19.4561
-1.0534
-28.097
-34.7324
39.7689
-10.4266
12.2479
-29.9182
-38.2168
8.33406
41.1205
-9.50136
-19.3713
9.93566
6.25793
24.9269
9.21414
24.0281
-4.28069
-28.9616
-0.00827459
23.8492
-14.6268
16.7219
6.71066
0.595559
-10.3441
10.1786
16.8874
19.7922
-18.5502
5.46868
-11.7843
22.6378
8.93874
29.1597
-17.2318
31.7759
-43.7038
14.8483
3.96734
-9.17445
23.3983
-14.2321
-30.6869
16.8807
-11.5817
-3.99133
9.08778
-25.8044
23.8149
16.8379
-10.2749
16.2464
34.509
4.15822
-14.8524
9.71374
9.69322
-3.46302
-4.06094
0.581683
6.94228
-6.36048
-3.61926
6.51671
7.2156
-6.67095
-4.60559
0.636783
4.31671
2.26211
7.84149
3.40698
-10.6117
-18.1042
-17.4619
20.5156
15.0505
-17.7731
21.761
-3.97612
-0.0117667
-5.1844
-0.303998
-12.2847
-15.5999
-1.40919
-1.09514
-11.6595
-5.44137
10.6674
6.43349
-3.93057
17.263
8.42858
-15.8782
-3.02614
14.9282
-14.9595
-6.10302
-23.9065
4.48419
15.4917
-16.8096
-7.40084
2.89159
-17.1851
-3.16843
-8.76789
10.1425
-11.0997
-21.6069
-11.178
-8.38546
-2.29608
18.1057
-7.42414
-8.17016
-0.76419
0.548892
-11.6905
21.6239
-12.2295
-8.44863
0.682688
-0.404216
9.34271
-1.07234
1.17011
-9.44047
-5.40803
6.3021
3.13277
8.98927
-8.93663
-3.18541
-5.62452
8.75728
11.0325
0.425256
-12.5301
-0.800092
1.525
8.26437
-0.338037
-11.3254
12.8335
1.28084
-9.79221
-13.8895
1.39887
-12.9467
0.0916869
-1.59134
0.495843
1.00382
-0.794388
-0.174514
1.06059
-0.808912
-0.551902
0.566426
-0.21121
-0.304223
-1.07591
0.393475
-0.779198
0.0326506
-1.24297
1.70616
-0.999357
0.223096
2.35142
0.0246907
-0.750789
-1.62532
-0.0864973
1.61832
0.819592
-1.38647
0.748071
-0.314792
-1.04699
-2.01369
-0.461422
1.23215
-1.04529
-1.27263
0.586061
-0.21663
-0.830853
-0.728087
-0.000449356
-1.53352
0.488675
-0.967868
-4.16125
10.2806
6.7847
-12.904
-1.95453
-17.1949
5.56626
13.5832
-16.2944
10.1786
-9.8178
-23.6715
-6.39785
16.0062
-9.60833
-12.2328
13.7415
4.05761
7.85363
-24.0356
6.36414
-10.7771
9.0157
-6.41733
2.46303
-5.0614
-0.616327
5.58699
4.04504
0.137481
-1.26051
-5.29431
7.95826
-1.61447
-6.20631
12.1907
4.9677
-9.20017
6.4463
5.12811
-6.90957
9.3726
0.327589
6.91383
-8.50192
-9.55525
8.26837
13.2403
-8.27263
0.00426077
-6.53383
0.866805
-6.29557
11.9626
-8.98674
-4.61648
7.06939
6.0426
-6.99733
9.85598
-8.90125
0.150624
5.89198
-7.49593
-7.39965
15.7624
-0.302607
-9.26765
0.583512
-6.59818
-4.17744
-10.6485
7.32996
-10.7527
1.95878
-0.0525894
-8.66851
-2.03159
-7.63149
-1.68875
-4.5458
6.44756
-9.53325
5.49433
-17.0375
10.7589
-0.339365
-0.563517
9.25119
9.99181
-13.166
-0.996013
4.40202
12.8761
-9.89425
-7.38386
10.6678
0.440952
-6.70676
4.41684
19.1271
6.52705
-12.0316
10.6245
-5.1199
-9.93737
20.8813
6.19997
4.92918
-23.1221
11.9929
4.72662
-10.5583
5.21075
-10.1758
16.854
7.02351
-15.4823
-8.3952
-5.64728
16.2629
6.23836
12.1992
-3.91613
-13.9304
9.44548
-0.400489
-2.02148
6.78928
18.9191
-2.23939
10.8683
-9.02936
11.0611
3.226
-2.0879
23.9632
-6.11283
-6.52463
-7.78193
-2.08425
16.3908
-12.8865
-9.01017
15.3721
0.0289454
-7.81088
-12.8807
0.0231033
-1.1568
-24.5166
16.6632
6.55748
-19.6198
11.9055
-8.05483
12.5281
-20.4622
-10.1317
22.5392
12.5611
-27.8426
-5.18067
2.42932
-3.13248
-18.6661
-2.71799
-12.394
-3.61914
-5.38155
-24.5491
-13.7368
-10.8787
-6.89682
11.702
-0.932666
-3.30555
-7.46382
-5.33853
0.134416
5.00653
0.197578
5.56358
-13.4108
2.50871
-9.4151
8.54795
1.00157
8.98666
-12.8382
-1.47895
4.0402
9.14079
-13.4824
4.70186
7.30162
-0.936892
-2.43726
-10.1083
7.4299
-3.35603
11.1885
-3.13871
7.00404
12.7324
1.29945
10.1706
13.0053
0.0998882
-6.21715
8.25286
-2.1356
-8.44992
11.2879
-2.73808
1.32397
-15.991
-15.2238
-1.37312
13.6993
2.89759
11.901
-25.8008
10.5278
16.84
7.75238
-16.3395
-7.55445
8.52407
15.8704
0.197933
1.19301
9.19423
0.900642
11.637
3.25528
-0.0277263
17.746
-10.7258
22.3351
-5.81559
5.26867
10.3653
-9.81839
-8.05356
4.58304
-2.34507
-16.9816
5.51713
3.41088
-6.13466
-9.3969
20.8002
5.96007
-7.51169
-4.07534
-5.32156
-3.86774
1.6252
-16.9509
19.1935
20.8183
-21.5056
-3.1805
4.02057
13.3879
3.40987
16.5714
-1.77313
-13.1731
5.37678
19.0544
-7.85975
5.85141
12.0034
-13.8342
15.5681
3.94996
-19.4166
-0.10148
-2.0892
17.6573
-13.7865
15.9633
-1.36272
20.9173
-14.1777
19.5266
-15.0379
0.810026
6.0895
9.63132
-16.5308
4.43231
6.76126
-10.3835
8.2191
7.11607
-10.9029
-2.90174
17.6857
-6.5649
11.499
-8.31124
0.0543485
6.70691
9.68567
7.55495
-12.3314
9.38011
-4.60371
-2.53386
15.5131
-5.42431
0.161875
6.95419
0.978276
-1.81063
10.6639
6.86879
14.9989
11.8838
10.1296
-4.8855
-17.1278
-4.48862
8.83046
7.54192
5.64097
-12.2885
0.737326
18.0906
-6.53951
-6.87234
3.41434
-6.2807
11.9217
-16.7188
-4.93803
12.3973
9.25956
11.2187
-6.83784
-21.0997
15.812
-9.09061
-15.4571
8.73572
1.69223
7.9606
6.15918
-5.9924
18.6514
-20.814
8.0971
7.14282
2.46192
-17.0377
7.43291
6.46132
11.4994
-10.8179
-5.84753
-17.4217
6.01825
17.251
-20.9389
3.62778
11.4636
-4.86832
-6.06899
-10.0016
-14.7663
-7.52373
5.60043
6.99507
-10.1336
12.0617
11.5389
-0.0476893
0.00815667
1.36234
-5.06129
-6.64647
10.3454
-8.84735
16.2279
-11.607
10.1735
12.4651
-11.539
-3.96627
6.65786
-10.6127
-1.44901
2.30712
-4.96509
-11.2163
9.61412
6.5673
-9.96922
5.00413
9.12336
-2.22362
8.68519
-15.5849
-0.845862
7.4847
-16.0774
6.36913
6.99504
2.0011
-1.51144
-0.657484
-7.27965
0.233024
7.70411
-8.96041
-1.29185
9.59478
13.9927
0.425084
-3.4757
-10.9421
14.7833
-9.75101
-2.10606
-1.13047
-0.168022
-6.10986
0.275083
6.0028
-8.87757
8.70955
-4.06975
-6.80117
7.77074
3.10019
8.21321
-12.283
-8.80889
-0.0686832
12.3279
0.936763
0.608904
-13.8736
-0.0237315
12.3516
0.81268
-8.6848
9.0388
0.627746
-9.05765
9.27457
-0.259495
1.28801
-7.77712
0.379241
3.76141
-6.33669
-10.7959
7.86912
-12.9081
15.8349
-10.5743
-0.221619
-4.72544
17.6188
-5.02428
7.34178
-7.56572
-9.41268
9.63661
-3.7749
11.1167
6.08262
11.142
-10.1858
-7.03876
-4.49167
8.26658
-5.30368
-10.5286
-3.12318
1.35706
7.16846
13.866
-17.2535
-3.78095
-11.6313
14.0744
3.62109
-19.1106
-13.6068
-1.14768
-19.3303
9.34451
-0.974754
5.27977
-5.97329
1.66827
-8.97359
7.99884
-7.70683
0.348122
-5.08953
-5.70736
-1.99947
-8.08117
10.7169
2.25402
-21.9446
3.62442
1.11924
-5.78969
0.0823344
-10.1538
6.61815
-2.85993
1.62289
-4.6245
-0.441038
-2.41889
3.70584
-1.25701
-5.44219
2.99337
2.38709
0.385306
0.933451
1.45285
1.2323
-3.94216
-0.470218
1.92307
-3.44166
3.42678
-0.455342
3.9625
-6.17186
1.48203
-2.26048
2.75381
2.93345
2.37303
-0.671014
-3.36868
-0.922021
1.39144
0.774473
-0.953498
-1.97425
2.15328
-0.152459
0.284384
0.642548
-0.223637
0.335679
-0.0843792
-0.0276632
-0.839058
0.76061
-0.145189
-1.25268
2.65361
-2.23999
0.0668909
-1.31957
-0.0012769
1.15452
-2.10674
1.05039
0.405345
-1.12005
-0.0382358
0.936165
-0.472236
0.432723
-6.16209
6.0552
-18.0008
18.1077
-21.795
2.99214
12.6408
-2.40166
-10.5807
-8.81268
17.5359
-11.2965
-8.64109
11.1841
-5.91465
12.2664
-4.45429
14.5202
-4.01076
9.72197
10.4598
-2.50097
-19.2553
4.54516
-16.2107
-0.75559
-1.03448
-7.69443
-19.0969
12.2537
-6.70446
7.21266
-12.7619
12.541
-1.04285
-2.22857
6.77373
-16.8998
-4.98409
8.59877
8.9263
-1.30645
-0.187303
1.03643
0.45733
1.85111
-0.520017
-2.63754
1.6638
-0.0643185
1.54791
-2.00361
-0.925086
-2.18712
-1.10283
4.21504
-0.338293
-1.13778
0.550991
-2.52542
0.317822
1.10745
-1.48959
0.216465
0.686302
0.861613
0.690921
-14.2392
13.6643
-14.1262
14.7011
2.47411
-3.5345
-13.1788
3.66435
11.7197
-20.4319
5.0478
6.00443
14.004
-16.344
-5.19995
7.67406
13.3686
-6.68482
-0.679376
-0.348975
0.349777
13.3678
0.0691301
13.9348
11.7889
13.5859
6.5889
-6.93397
-16.1499
13.3916
9.6923
-12.2599
5.36982
-0.0438616
-2.64657
-4.33297
-9.17037
-5.05709
-9.8494
7.92064
-7.98692
5.4361
-3.52064
13.9537
-12.1736
3.71589
-5.49595
-9.04228
15.9401
7.05588
-7.4326
-5.94265
-15.9154
-3.69088
10.6485
-6.93261
-10.496
-4.61239
7.12143
-10.7338
-4.81925
-11.545
-1.27597
-2.97122
-0.130444
4.37763
4.85157
-1.99829
-0.769933
-2.08335
-3.3626
0.960648
1.47045
0.9315
-1.1034
4.64825
-3.54485
1.83664
-2.94005
-6.44208
0.732581
19.2296
-13.5201
4.32535
-11.3005
0.533119
-12.9008
-6.00246
19.6359
-10.4889
-5.34402
2.93211
13.895
-10.811
-15.4124
12.3285
15.3906
-7.49807
-23.8959
2.59594
1.39764
2.82539
-5.41431
1.19128
3.71271
-4.41155
2.09648
6.61408
-5.95838
-4.95343
4.29773
0.593457
5.49516
0.525465
0.548528
2.87032
0.76984
3.4914
1.21325
-5.15992
-1.46764
-2.97519
-0.223105
-0.50447
-3.85259
5.53835
-1.18129
-1.71647
1.98184
0.881789
0.237569
-6.27928
1.15215
-3.24555
-2.69591
-6.55582
5.39913
-5.65911
1.24674
1.2289
-6.94972
-0.864834
-0.844178
-4.84681
-5.3718
-3.67773
4.06246
-7.86753
-5.24096
5.45324
7.65526
-0.760978
-2.43378
-4.67278
8.40213
-4.26404
-4.89906
-4.63933
5.00585
8.03561
8.4642
-4.24975
-8.47849
-0.507339
4.33221
9.78775
-3.55747
-8.66406
1.42838
3.1184
10.6596
-0.200525
-7.66339
3.47832
-1.10917
-10.804
-11.6687
7.00211
2.84501
-6.37005
1.74571
5.32071
-7.84531
0.778883
-6.11963
3.91634
3.94901
-14.5798
-0.312462
7.97837
6.91385
-5.18856
-0.935574
-8.45562
8.42823
-1.42837
-3.07405
-3.92581
-5.13005
7.43865
-10.1916
4.7491
-5.32392
-10.0563
2.41677
-3.15604
6.05998
-2.69325
9.02636
8.50184
-4.32874
-5.60147
-2.01461
2.67115
-11.9319
4.00007
0.0589477
7.87291
-5.61313
-7.25438
9.2852
-1.50289
-6.89508
6.56178
-2.74015
-8.15037
4.18666
0.36051
-5.0154
1.75046
3.32389
-4.8228
-5.80574
2.78108
-9.06584
-15.1211
12.4464
15.3186
-12.6439
-2.40444
-17.4126
8.56924
11.2478
-26.4824
10.1347
13.9433
9.08571
-13.364
-13.1343
-9.72215
-7.67455
0.487346
-12.2985
-1.05501
12.8661
-0.891614
11.1721
-9.79309
12.8149
-13.498
-0.208535
-11.2957
10.0998
9.76515
0.574013
-1.73947
-13.9556
-15.9693
15.5148
10.5892
9.6472
-11.8392
15.8559
-12.7632
-1.07451
2.19071
-2.30411
-1.25986
17.6681
-14.2175
-0.0957526
-2.25588
2.2546
0.0970347
-0.221945
0.126194
-2.27039
-1.38517
0.0457081
3.60985
-2.49234
-8.75301
-2.45043
6.17009
5.03335
0.239939
-1.54887
-7.44408
3.62508
-2.42168
-3.69574
-0.204239
2.44416
-6.92886
4.06825
0.410185
-1.13494
-5.55398
0.333062
-0.511074
0.304206
-3.05776
-0.210834
2.51114
-4.48162
-0.406282
6.37214
3.45113
3.89538
8.43354
-15.305
2.9761
8.63982
-11.9291
7.18468
-18.7466
-5.68464
11.4681
12.9631
-15.9173
0.10714
-2.93641
-6.45263
-12.2067
17.1438
1.51552
8.33876
-4.83283
-9.95856
7.771
-7.48082
8.14336
-0.196678
16.6075
-9.36966
-1.52558
-1.03388
-16.3359
11.0662
8.63635
-24.5354
14.9385
-16.079
7.52478
-14.8057
0.314558
17.7775
-2.73188
10.493
-5.09388
12.3784
21.7645
4.56911
3.85817
-7.13492
-5.38731
12.4413
5.49901
-8.22966
-9.71066
3.73426
4.90382
3.80323
8.71161
-3.35432
-1.49912
3.38907
8.44094
-1.21854
-3.79779
8.4054
-2.65048
4.27695
-5.08737
-12.927
6.34565
7.58876
-9.52745
5.67295
9.1281
-2.2041
-1.42499
7.02273
7.00919
2.91032
1.46193
6.7013
-10.2219
-2.65986
-0.862347
-17.5892
-13.0846
-4.08694
2.03768
23.5985
-21.5493
-17.4705
0.147962
13.2356
-15.4562
-3.66851
1.65423
-1.84877
-12.8267
16.7132
-8.67232
6.97151
-7.4497
-11.4939
3.48739
11.2604
-4.55623
-14.4509
7.74671
18.2869
3.09012
-10.1166
-7.72584
13.186
7.72116
9.78208
-6.81153
-10.6917
15.0248
-7.57754
0.273891
-19.592
8.49664
3.3695
-6.71978
-14.2781
14.1024
-2.92179
-4.6591
-10.3681
-16.0269
-10.204
6.65795
6.03321
-2.48714
7.74728
-12.9417
-5.00958
-10.3338
13.3175
3.01774
-6.0014
11.5399
-16.4807
-5.39304
2.95446
0.0682601
8.51716
12.5227
3.74927
-13.9329
14.2569
6.334
0.140518
-6.32617
7.60568
16.207
-17.6558
-6.15683
14.7181
-6.97192
11.9965
-2.9455
1.96308
10.7005
-0.140874
16.3075
-4.83006
4.72952
15.5865
15.4391
1.6151
12.3444
0.900048
16.5681
-1.88168
16.772
-8.14779
-7.20893
3.09901
12.2577
-9.20226
-2.6182
3.67268
0.724768
-10.6149
0.687824
11.4695
-12.1831
1.43838
5.74913
-9.71317
1.34583
-0.0334631
4.29405
5.68322
10.0339
-9.96796
-5.874
14.6562
-5.87968
-2.76017
-1.07332
3.3126
-7.69142
-1.50087
2.56389
-9.86614
-1.38393
-8.23532
-4.34463
3.11895
-4.64832
-3.9766
2.75926
8.89388
-7.67654
3.08695
-3.83937
-3.22417
-2.20239
5.20106
-5.75884
-7.78325
3.40516
-6.08023
-12.3616
27.0324
-6.88638
-7.78443
4.98679
-16.5511
-0.797251
5.3705
22.4609
-22.8446
-0.64682
30.1269
-6.29146
-23.1887
7.24441
14.1637
-34.7965
13.3883
22.0226
-17.2989
4.92329
19.9142
2.19486
20.7279
6.65637
-2.48285
18.6393
4.57142
17.3384
2.20138
16.1937
21.1777
-8.38077
-8.4986
35.5187
25.1513
28.7466
-17.331
7.95918
-2.06314
-10.3742
4.4782
-10.6332
16.7614
1.83106
-12.4999
4.29939
-1.47071
9.67123
-5.32821
-12.684
19.7555
-1.74336
14.659
-6.66067
-13.3265
-1.65547
3.81455
-11.1088
3.60974
5.43592
19.6469
-19.3395
-10.6816
-9.78055
18.7942
-7.0698
4.67669
0.737635
-2.49973
-11.2307
-5.3367
-1.09541
-3.47592
-6.01565
-9.84793
-16.3596
8.64946
-2.07037
-7.56596
-12.2696
-4.32101
-7.03134
-2.81743
-10.7861
6.03758
-9.63817
4.0667
0.297992
1.69529
-7.14444
3.74836
7.46279
0.974369
0.907544
4.55964
-0.117573
-1.66098
3.55081
1.30681
-3.23647
-0.927009
7.91184
-3.62452
1.36242
8.03529
-4.7324
-0.987945
-2.31495
2.85349
7.58604
-2.40424
-1.52608
6.88881
-1.22813
5.47729
-0.550599
-11.5957
-2.6042
14.7505
-8.47221
10.0525
-2.13091
-13.3224
6.37066
-2.52739
9.47916
-1.76734
0.145918
-6.85079
-2.47317
-10.8898
-9.93734
9.58944
-2.2563
-11.7792
-1.76809
11.3102
2.23705
-5.53013
-19.5715
-3.48217
-0.0845044
-6.63732
5.93001
10.6115
-9.90415
-19.7135
-0.47913
13.5554
-7.01868
7.61645
-14.7435
14.1458
6.99728
-19.5461
-11.888
-3.20737
11.6132
-5.92367
-6.17341
-10.8144
0.421307
13.8939
-4.03422
-10.2809
17.752
-4.85727
-12.4734
-5.51567
16.3238
3.08572
16.2236
-3.98731
-3.08465
11.8015
-13.5741
2.52874
8.27687
-13.8903
-0.446542
-12.6745
1.80612
11.3149
-7.32658
0.154212
6.72583
-2.08763
6.56258
7.34852
6.78745
7.3684
16.3039
8.40594
-9.91141
2.48408
-6.8817
-5.79794
8.47693
4.6894
-13.9279
-2.78381
10.9138
-3.03787
22.1422
0.234922
-4.96258
-17.4145
13.9127
-1.36143
9.59095
5.1602
-11.3779
20.1303
-3.86235
17.5539
-8.09466
-5.59689
21.0669
-12.1294
-12.7998
-22.5255
29.2422
-6.48175
-5.42062
-13.1347
-3.97023
-7.88596
-1.6363
14.6825
-13.4443
4.19692
-8.62093
9.66367
16.5112
5.84317
6.60276
-16.0803
8.4792
-5.39026
-19.0602
8.37009
2.29564
-19.8153
5.73044
-11.5295
0.502505
17.3618
-17.1478
6.84856
10.8018
-16.838
14.8759
29.7519
-25.6663
-22.7673
18.6817
-1.77384
16.1245
15.4012
-4.12323
27.1974
-10.7197
-12.3544
12.2905
-24.205
29.7215
-17.807
-16.6816
3.30581
15.1208
-32.0523
15.1577
6.91966
10.3193
-41.4439
-20.1567
10.3948
-14.3659
25.3635
-0.382884
13.8945
16.2099
-29.7215
-12.3079
9.97703
29.046
-26.438
7.71127
-26.7587
12.0099
-10.0206
45.0011
-28.4459
-2.26243
-14.2929
24.1733
30.4445
-9.61665
-20.5333
28.1064
-20.2333
12.6602
-37.0606
-11.9186
46.2484
6.03123
-5.25841
-30.3061
-1.49603
12.4243
8.38409
-41.0417
-19.0611
-20.4168
25.1012
14.3767
-15.6663
3.31488
-6.7097
24.1042
-30.0166
25.342
-19.4296
26.1855
10.343
-4.50211
-26.4069
25.6506
-1.80177
-34.462
6.24718
-24.2528
0.241647
3.59432
-22.8231
-17.0959
21.4247
4.15896
31.1004
16.5098
-29.127
3.8772
9.1044
-1.57514
-11.4065
-11.8887
11.4328
4.3331
5.72623
-12.8008
-4.81412
-8.70251
14.646
2.08004
-8.02358
11.2356
-16.4609
-3.47724
-4.44057
-2.38688
18.2602
-3.65267
8.3165
-1.07837
5.54795
10.1765
6.50455
11.3223
-3.51599
14.4833
-6.43503
-0.9027
2.79142
4.54631
-4.18368
0.33992
-2.59126
1.92505
-1.51994
-4.58879
0.528734
0.493613
-0.293914
1.88275
-1.0601
1.67579
-0.723721
-1.24599
-0.563602
0.591169
1.85518
1.15916
-0.046967
-4.84218
1.67419
5.95941
-2.77752
-1.72474
0.278305
1.60804
-3.40629
2.06551
-1.24914
0.372899
-1.18928
0.181548
0.84148
1.04248
1.34154
-1.78696
-1.22122
0.625026
0.777743
-1.12881
0.900887
0.883297
1.28122
-2.4507
-3.46119
2.24366
2.05901
-1.80707
4.33475
-0.4169
-9.73923
-10.2504
24.0628
-4.07319
-15.1453
-18.1138
23.5199
5.70365
7.93724
-0.225379
-13.4155
-0.331838
-9.10982
6.4851
-8.79827
-12.528
1.95466
25.1146
-14.5412
-0.856828
12.3916
-6.23013
16.3168
-10.4185
8.49701
-14.9525
8.13366
-16.605
7.61446
-6.04431
-7.37959
15.3786
-9.24055
11.3299
7.93611
5.39262
2.98808
-4.28809
-5.83176
7.23897
-16.6767
0.197195
7.79548
-12.4678
5.88598
-3.82569
-2.00615
-0.0541351
-1.27101
8.38574
-1.22874
-1.12519
2.48748
-5.87972
4.51743
1.21573
-4.39606
2.05514
7.3163
-8.01544
-3.12655
8.53276
3.79036
-2.41488
-4.77184
3.39636
2.07367
2.93241
-0.991091
-1.10498
-3.78364
-3.4728
-1.91435
-6.25876
0.371077
11.338
7.62077
-3.91053
-15.0482
-2.17505
6.42744
7.08559
3.44797
1.99774
9.16304
-3.0106
-2.70447
2.96643
6.13162
-13.0086
-11.7319
4.09761
16.7973
-0.543499
0.522345
-11.7107
5.58057
-8.28288
5.66874
9.03948
3.47662
-6.38448
4.47439
10.9925
9.92671
-10.8291
0.358912
18.4987
-1.77192
18.826
14.9411
0.413919
-34.1811
-0.0904001
26.2411
-7.32472
-41.2247
10.2528
15.8058
15.1661
2.46298
-14.6202
-29.0676
42.5451
-12.1324
-27.9497
28.4126
24.3854
42.6989
-39.8902
2.6212
28.4088
11.6689
-11.9028
16.381
-4.56863
9.6072
-21.0961
-28.2501
21.6714
9.19996
13.9845
-15.9935
18.1124
-23.1254
13.8477
42.9736
11.9755
11.5051
-5.36817
20.681
7.10022
-17.4514
8.93464
30.1882
-9.40836
5.94144
-12.9849
11.1986
22.4673
-3.79699
2.31728
3.17566
33.9809
4.90407
6.73259
-27.049
15.4123
10.5961
26.637
-32.329
0.522085
19.6706
-13.4601
31.9002
-20.782
36.7118
-15.972
5.89711
46.344
2.94609
-21.9645
-27.3256
22.1551
17.887
-20.3715
23.474
31.9232
-23.4971
45.9071
-0.277998
1.35633
29.9391
15.0485
-44.8737
15.2658
30.9642
-18.2603
18.03
-44.6433
33.5154
-12.6823
-3.30075
15.1067
20.1172
18.6489
23.9575
12.5636
-4.94647
25.8983
10.9018
20.3107
-18.4336
31.9924
1.70695
19.0142
-0.562721
15.6874
-0.0433491
16.5591
-3.99443
-12.5213
-5.00516
20.6477
-15.6859
-3.22063
21.0936
-22.8781
12.8712
1.07263
-17.1644
5.92795
13.3147
-2.68354
21.4371
5.13858
-4.82799
14.0959
3.6033
18.6395
-2.37388
12.6737
-15.5955
-17.4752
-13.8687
10.397
20.9469
2.84821
-19.5052
-0.818228
16.1512
3.783
-1.10256
13.4707
14.86
0.854214
5.72288
16.1186
-22.9501
-1.33576
3.58562
0.370337
13.8097
2.88338
10.874
13.5239
5.96984
9.8671
2.89302
-7.01187
10.2656
16.3791
-5.20485
8.39267
-8.43486
5.24705
-0.0333806
-3.86959
-1.30188
-10.1513
8.72788
-7.63931
9.06277
-3.2899
-12.5234
5.66201
-6.45722
10.673
4.51205
-4.90705
-1.58355
-6.56895
1.95419
-7.89724
12.512
4.83466
-0.730566
-2.55123
9.34008
-6.89515
12.7366
-12.7915
5.66609
-1.30941
-9.77424
-6.88689
-9.48445
1.28749
7.03251
-0.661105
-0.946101
-5.42531
17.6567
-18.5215
-5.81569
4.58662
-0.354761
-6.12204
8.41061
-6.52114
-7.39655
5.50708
3.87663
1.8387
2.69528
-8.66956
-10.6987
6.72797
12.6403
1.71085
4.51035
-12.7423
7.53552
-14.4942
-9.41189
6.06987
-6.68394
10.026
5.73713
-7.61351
-7.68559
3.05949
1.86229
2.7638
9.03448
-12.2097
7.10394
4.78148
-2.85094
4.75771
5.40572
2.09066
5.50876
-8.91882
10.1627
3.5138
-0.260712
-5.18036
-3.08793
16.4004
-8.13212
-26.5805
1.10613
14.0412
11.4332
-1.61726
-26.3811
1.4178
-16.0824
-2.55293
13.455
8.02017
-0.918591
-23.184
-20.6054
9.97625
11.7353
0.158458
-22.3811
-5.39657
12.2849
-17.9609
10.0114
-19.2413
1.43889
18.0965
2.26912
0.94007
-21.3057
7.72828
11.8716
-1.50342
-6.95867
-4.52085
6.28264
5.19688
-13.7198
-8.53261
15.2938
-12.8174
13.5459
6.99979
2.1063
-12.6546
-13.189
11.3409
2.22778
-14.4768
-4.49615
18.3996
-0.35751
-3.40611
-17.9409
16.8262
-24.2282
2.86043
17.9617
-2.15435
-25.936
3.86212
-20.8122
0.716933
-16.6008
14.965
3.41326
-21.9977
0.157829
-22.6806
-14.3366
-17.2024
4.00903
13.6952
-0.501805
-8.21625
5.28654
-14.2727
-1.54146
6.46592
4.85642
-9.78089
12.2206
5.77738
-19.5394
1.25489
10.8174
0.148336
7.10941
0.611402
18.5225
9.20999
-15.3263
-12.4062
11.9794
7.63757
-1.09441
-16.563
10.8393
17.703
-5.21668
-2.13632
9.17524
-12.5351
10.9871
2.19714
6.70182
-3.87809
2.46281
15.9851
4.41191
-14.8011
5.25228
-10.3302
4.20839
16.9611
-4.72946
13.3017
4.79484
9.08788
16.0762
-9.17904
26.598
5.11025
10.0629
0.665936
-15.8391
10.2686
-11.7278
6.56941
-4.69281
1.12323
13.8382
-2.83162
8.20174
3.46695
-0.344122
-14.8506
-8.68853
-3.38862
13.2004
8.39784
-4.07956
2.66391
-6.98219
5.6602
7.97944
-4.34628
-9.29336
11.4635
2.76976
-8.57309
0.728342
12.0778
-4.82667
13.1728
-4.04663
-7.59492
2.37334
2.57317
6.05874
-10.4811
9.66565
-6.65663
8.2533
-1.07874
6.2086
0.821771
-5.02596
-2.00442
1.6205
3.07179
1.51632
-3.25317
2.36847
2.50521
-0.648959
-1.78244
4.02429
7.26897
-8.22147
-1.79901
7.80031
-3.63284
-3.30469
9.17102
-2.77585
-3.09049
2.14514
-4.73319
-0.716639
3.02164
-1.43885
-2.23175
-5.03949
6.26212
3.31353
2.28548
3.57201
-6.13668
4.41073
-5.4304
-6.78583
-4.88542
4.75689
6.91436
-8.98515
1.10466
1.09465
-2.28749
-2.92593
0.328
6.85867
-8.27252
-0.873635
5.75007
-8.37756
9.48615
-6.25669
16.7637
-4.47581
-7.43526
7.06584
-8.72855
2.76737
-5.46837
6.27752
-8.32021
-0.0444043
0.0920991
-3.91412
-9.9318
-8.69923
-0.0875753
0.0582534
13.4387
-0.433583
-11.3111
-1.69399
16.4733
15.7609
-19.8585
-12.3757
4.00055
10.9325
1.54026
12.1163
5.323
14.4093
3.0189
-1.6673
13.0818
12.26
24.0567
-12.2125
-3.6196
-8.22456
0.511341
-1.85501
25.4003
-15.1159
-0.614083
16.2413
-15.2121
22.7343
-14.729
-11.6249
-1.04296
21.9222
23.2673
-17.0481
-6.55841
0.339246
0.628181
21.5962
10.8686
-13.4931
-14.4236
15.5807
-1.69317
-1.04979
13.5175
-6.52003
-14.7674
15.1591
12.7767
-0.195486
2.82525
-15.4065
1.85118
13.5824
-2.65686
21.2893
16.5391
-22.6897
-15.1387
-2.8695
10.5918
13.567
5.21841
8.4512
11.4898
2.47928
-14.1646
-1.61429
14.9553
11.9956
12.1786
3.18057
-23.045
-19.1841
6.83187
11.4954
0.856788
-12.6766
-1.04146
-5.46601
1.23403
16.858
-6.0964
14.9053
0.0670661
-11.7917
10.1629
9.96076
2.85074
-13.0481
-18.6396
4.80384
20.6676
-12.9947
-6.68634
16.2008
-10.0769
0.585518
0.689691
-1.04168
-0.233525
0.746951
-1.15608
0.99465
0.311352
-0.823807
1.25941
0.0859446
0.915099
-0.408125
-0.250453
-0.383107
-0.958935
-0.605272
0.498107
0.321394
-1.06995
0.672724
1.54116
-1.71578
-1.19555
1.95422
-0.495755
-0.103256
-0.74807
1.34708
1.58101
-0.663251
-1.41352
0.847481
-0.373951
1.10748
0.640734
-1.10063
-0.363915
0.292668
0.357429
-2.12131
-0.704762
-10.352
14.6194
-15.4918
11.2245
7.74163
-0.136515
-17.9571
0.969194
-3.20905
9.98149
-4.5138
20.1024
-24.7542
-1.07414
5.34318
20.4852
-13.6643
-1.49982
-9.59013
1.59993
-5.31574
-11.776
-3.22872
-15.6487
14.3637
-18.4849
14.182
-12.023
-20.1261
18.158
-11.191
-8.46677
20.2921
-9.98229
-4.06651
-8.33242
-0.76643
-2.09215
2.97667
-17.0762
5.76712
-19.0286
4.24847
7.59674
-11.8452
9.03073
-8.09104
3.30878
1.5292
-2.53124
8.59879
-1.15847
11.7184
1.63168
-13.4769
-7.19407
0.734713
1.02419
-17.8108
1.82189
14.9647
-15.3911
2.70131
13.714
-22.0139
19.4753
1.82161
0.717013
-2.24317
0.0767069
-19.8475
-3.43973
5.10426
-19.2241
0.393276
-10.735
12.2779
-0.573839
1.24259
-7.86282
1.6422
-15.6929
-14.3361
13.6267
14.1888
-14.7898
1.67434
-1.35813
-17.7893
-10.8506
1.10894
7.2104
1.50455
-9.8239
2.41531
0.195453
-13.4955
10.8848
16.6996
9.35156
-18.95
-7.10115
-9.4604
14.6912
11.4688
-6.84896
8.91115
-2.69883
0.636635
-9.08087
2.52566
-0.29375
15.1388
2.72539
-15.4488
-6.49262
12.5505
0.735568
-4.5028
-9.89194
10.3234
-2.87207
2.44059
2.41987
-12.1164
-3.25198
8.3833
4.22023
1.51895
-18.0491
-7.20588
8.18039
-9.7638
1.09209
-3.69684
12.3686
-7.97202
-24.4358
22.6441
2.30975
21.3472
-13.3761
-10.2808
-12.2022
2.32078
3.84879
6.03259
-12.8413
-15.5381
16.1772
-21.9058
1.09249
-6.92218
10.3245
16.0152
-19.4176
-3.43877
-2.39131
-7.30773
-8.83588
18.4534
-8.71222
-10.3591
11.7635
-7.24125
0.849811
0.665167
0.823474
-11.9349
2.24098
-8.51911
-10.657
-7.44198
6.26461
-7.67098
8.84835
-10.9131
6.46213
-2.99104
0.213734
-10.946
12.3797
-1.64749
-9.67803
-1.0213
-6.16105
-3.66427
16.0899
-6.24908
6.55016
0.220209
-16.1489
9.67957
-22.1275
8.61537
13.7324
-0.924699
6.94764
-15.701
7.43247
-19.3032
3.8202
-13.0214
-6.77155
-11.5358
-0.300521
5.00929
-10.5486
15.4996
17.4069
-16.746
6.55785
47.459
-28.9906
-1.73283
-16.7356
1.33687
21.5102
24.6119
-33.5142
-2.74779
23.7547
12.5073
-19.7776
-42.7272
-25.4985
12.8186
14.0167
-17.1999
-10.0314
-26.8403
14.0492
10.0433
-12.1293
8.9329
-23.6439
0.563016
-32.4699
8.61963
36.6453
10.1418
-14.6695
17.3463
-32.535
29.0473
17.5369
-5.56995
-18.0322
16.2362
9.8527
-25.5259
25.7388
-6.97735
14.0562
-15.0199
-2.63361
2.02036
18.9833
-14.7005
2.03135
14.3183
-6.88747
3.24276
-14.7633
18.4081
15.8065
-18.0393
-1.24284
4.66106
-6.95852
18.1039
-11.3537
-0.442068
-10.7735
22.5693
-1.77855
-16.4626
-2.81617
22.2605
-5.57463
0.760906
-13.2256
-10.0619
19.2233
-9.60348
3.22811
-15.0685
-19.3726
17.0261
2.47471
4.09785
15.7895
-22.3621
7.57173
24.5155
-29.6125
13.1917
-9.18799
10.331
17.0733
3.34071
-1.19075
21.8289
7.72767
6.60931
-26.1762
11.0155
-16.4221
-6.14833
9.10278
8.29339
1.40599
18.5773
-8.96783
10.2601
9.7442
-13.395
-6.52766
18.1937
8.60972
3.81927
11.4711
7.06852
-9.92993
-0.873102
9.54279
1.94375
2.2299
-15.2276
11.054
15.3064
-6.65006
6.9258
-15.5822
-4.51235
-0.981988
20.8008
-12.7983
3.50058
-2.09847
11.3962
4.11792
-14.9725
-4.41493
14.9356
-15.033
-9.93797
-3.82769
12.7837
-16.6098
0.0217706
21.384
-0.923331
-9.99293
-10.4677
2.15619
2.19582
17.032
17.7146
-9.24524
-9.39273
4.48816
15.3827
12.9447
4.01113
-12.8379
-0.164518
-0.463664
-12.714
17.1888
-4.20502
-12.2447
15.986
19.411
-11.7362
-17.6677
17.1918
13.9081
-13.2476
-13.7113
14.1307
10.0318
-19.7778
-4.3847
-7.23953
12.1342
9.23601
6.34795
-3.55565
-15.6294
4.05929
12.266
-0.695832
-17.3864
-11.9241
13.681
2.24851
-14.5435
18.6429
-4.4425
-11.6918
18.3828
3.67509
12.5184
14.2547
-13.12
-5.57728
19.811
-9.91087
4.35465
4.40906
20.9137
-5.51179
22.8705
-14.7864
-9.95867
-2.22516
-4.3233
16.5071
-15.4037
14.8413
-9.39621
9.79474
-6.91263
-2.88211
3.42723
-0.767404
13.7786
-16.4384
0.0827873
13.1392
9.15517
-4.67574
-6.70459
1.51911
6.57888
-2.36347
-5.73452
8.96753
-7.44841
2.0549
2.3835
-12.9153
9.76438
-6.71978
9.18606
-8.42442
-17.6085
19.3132
-6.36952
-18.4397
-15.4514
16.2825
-15.4143
-9.39494
-5.35612
-3.33125
-6.76403
-14.1915
-7.09136
1.70544
11.4648
1.48768
-14.6579
-17.3405
15.1284
3.9176
0.467542
-0.609526
-17.1985
-1.46738
-0.194242
16.79
-1.43967
11.4371
6.07615
-22.4578
18.315
-1.93334
13.7209
-12.499
4.85419
16.3132
-2.96172
-17.1069
3.7554
17.1681
-0.854876
-17.6356
-2.06019
19.5016
-0.836453
13.1177
5.68983
-1.50437
-26.6432
-9.23679
2.42763
19.4402
-1.49222
0.367018
1.23011
17.3736
15.8593
-20.3254
-1.25808
16.2625
16.9097
-17.7398
-20.4202
-18.7279
27.1944
11.9537
-5.58882
-30.3777
15.5463
9.39234
-2.88937
-25.2309
5.99932
34.1886
-12.9936
-29.1576
-10.2906
17.5135
21.9347
20.4153
-33.856
5.33342
8.10733
-5.84411
32.2587
-30.075
-4.92854
5.84597
-25.39
0.926279
0.453249
-20.9585
-4.88476
35.0675
-28.4763
-6.13801
24.6141
15.7868
-12.8746
31.6446
26.2015
-37.1419
-1.93412
5.26133
-22.5283
-3.69146
-24.5358
1.32088
2.74552
-4.49496
-2.92533
4.67477
-1.95333
1.59804
3.10081
-0.959931
0.0163834
-3.55141
5.61375
-0.112139
-6.46155
5.37737
-4.70846
-5.91727
5.24837
-2.10564
3.70508
3.77793
1.55479
0.67071
-5.49131
-2.6755
6.48177
0.538942
-20.8891
13.8684
-5.736
5.63176
6.58601
10.6368
-0.72974
4.38181
-14.2889
14.1232
6.79707
-20.3813
-12.4586
12.7631
16.8603
-17.1647
-1.33028
-11.1284
-12.0644
9.62252
13.0788
-13.3947
9.74181
3.65166
13.6355
-8.93349
2.09508
-4.46402
26.8496
18.9133
0.917034
-2.86044
-14.4347
16.3781
-1.88726
-12.6989
15.5032
2.61784
1.40975
-18.269
14.2414
-15.1492
15.8798
-15.1799
13.7292
6.40179
-12.3164
-8.52016
-6.29711
-4.27708
-16.5234
5.65129
8.0365
-4.11911
2.35978
-6.27717
-18.6182
11.4748
-2.27109
-20.4663
-10.5742
-1.47213
-14.4371
-2.89684
-15.0987
1.39234
-15.9798
-12.0787
13.1346
-13.6184
5.37019
-4.88636
-6.91861
7.21407
12.8391
8.46898
-2.50161
-19.5858
1.55037
9.41259
4.17312
-8.21553
19.4145
-2.78779
-7.67082
9.22119
-11.5738
1.57112
11.9872
-1.98449
-5.40196
-13.8427
-17.243
9.33938
10.0693
-14.3469
-14.4888
18.7665
-0.362437
10.4317
-0.513036
10.6562
1.55693
-11.7001
2.16926
-17.0292
9.34288
9.18882
-7.87553
8.98044
-0.712263
11.5217
-9.2525
15.2922
-13.8352
0.265526
13.2091
-13.8974
0.42276
4.14105
-6.73956
17.8907
-0.664137
-12.8514
12.7394
0.776133
8.31631
-3.5948
-0.067815
16.7043
-12.5121
-0.0510812
-0.274401
17.4854
-0.506706
0.561495
8.02034
13.0265
-4.58523
-18.8015
17.7465
-14.7489
15.8039
-11.7105
-2.92971
-4.16125
4.98308
-1.68844
14.4518
-26.5364
1.78357
10.0039
-22.6158
-15.6312
-11.6925
18.1172
-1.44165
18.3395
-14.6006
-6.66853
12.0036
4.6474
-19.7525
9.84356
31.1737
-8.32118
-32.8895
10.037
27.0383
-15.617
19.0521
4.42696
-7.15278
-16.3263
12.6918
5.20376
1.15654
2.00199
-32.9389
-13.6287
13.933
12.3875
-7.09206
-2.10971
15.8495
-21.0003
6.45262
12.3586
11.0288
-11.785
-11.6023
-5.96642
14.4676
3.85737
-21.4354
4.0706
14.5043
2.8605
-9.93541
-0.471267
18.6537
-12.5889
1.92433
-7.98913
23.7247
-7.13694
2.06594
11.4646
0.218143
-23.4678
8.33879
-2.8406
13.6159
4.92234
11.2848
-22.4948
11.4281
6.83944
-8.14355
-17.6252
-16.7477
21.0786
13.2943
1.51119
-10.7976
-8.39703
0.0604078
35.1632
-22.2476
-12.976
32.4995
-11.9386
-20.5005
5.2202
15.7335
14.2095
18.1333
19.5863
-21.5129
-6.39005
5.65543
11.2002
13.0131
-8.47989
-11.0207
2.27128
12.7342
-3.98475
-11.5227
-1.87931
2.38129
16.6764
-4.68994
-12.89
0.903488
11.3775
-6.22377
-15.755
17.2465
6.10273