/*--------------------------------*- C++ -*----------------------------------*\
  =========                 |
  \\      /  F ield         | OpenFOAM: The Open Source CFD Toolbox
   \\    /   O peration     | Website:  https://openfoam.org
    \\  /    A nd           | Version:  10
     \\/     M anipulation  |
\*---------------------------------------------------------------------------*/
FoamFile
{
    format      ascii;
    class       volVectorField;
    location    "10";
    object      U;
}
// * * * * * * * * * * * * * * * * * * * * * * * * * * * * * * * * * * * * * //

dimensions      [0 1 -1 0 0 0 0];

internalField   nonuniform List<vector> 
75457
(
(5.07851 0.180232 -0.843306)
(5.2045 -0.623342 -1.13829)
(7.30553 0.427072 -0.697404)
(9.43793 0.0661713 -1.07979)
(4.2511 1.56764 -0.00913389)
(4.39488 1.71324 -0.169242)
(5.53447 -0.0308046 -0.617707)
(5.27601 0.905746 -1.02689)
(10.4603 -0.202858 -1.22236)
(10.2898 0.0165555 -1.02169)
(10.4916 0.193486 -0.994983)
(4.61527 1.08323 0.160882)
(4.68998 0.865982 -0.283066)
(9.2911 0.321624 -0.472453)
(11.8825 -0.328392 -0.0728848)
(11.9726 -0.329931 -0.0615709)
(12.3534 -0.40993 -0.227233)
(12.134 -0.428385 -0.276774)
(12.0556 -0.364938 -0.0865457)
(12.3654 -0.356928 -0.162533)
(12.1846 -0.405289 -0.240928)
(12.246 -0.399015 -0.105904)
(11.9382 -0.348867 -0.0738457)
(11.9339 -0.354897 -0.107997)
(12.2217 -0.419836 -0.0906345)
(11.7112 -0.394637 -0.252811)
(11.6693 -0.423907 -0.277927)
(11.2745 -0.902931 0.420151)
(11.0956 -0.896527 0.588805)
(11.2478 -0.905904 0.411215)
(11.396 -0.824205 0.371276)
(11.0439 -0.898228 0.54557)
(11.0506 -0.875382 0.56121)
(11.627 -0.667804 0.354055)
(11.6088 -0.658269 0.326686)
(11.7625 -0.629559 0.564844)
(11.6875 -0.697895 0.397577)
(10.9904 -0.89707 0.624373)
(11.1131 -0.869425 0.610638)
(11.6577 -0.614585 0.366266)
(11.6793 -0.609235 0.385161)
(11.6658 -0.644503 0.406241)
(11.7285 -0.693734 0.569963)
(12.7534 0.49959 0.368547)
(12.5596 0.520168 0.293024)
(12.8773 0.444743 0.367352)
(12.8873 0.431474 0.392858)
(12.7373 0.469226 0.366435)
(12.1907 0.246887 0.0983236)
(12.4449 0.331857 0.159497)
(12.4529 0.332484 0.141445)
(12.2613 0.255197 0.134125)
(11.9606 0.280784 0.0320767)
(12.369 0.32802 0.140613)
(12.4881 0.310594 0.191606)
(12.4817 0.303669 0.166179)
(12.05 0.328946 0.0932523)
(12.0665 0.323885 0.077298)
(12.1467 0.241032 0.0620925)
(11.9239 0.26876 0.0206576)
(11.9989 0.306487 0.0689587)
(12.2352 0.245778 0.0997427)
(9.93937 0.0568568 -0.303472)
(9.946 0.0672743 -0.328073)
(10.1318 0.0897451 -0.257812)
(9.93038 0.0623902 -0.296668)
(9.95255 0.0568929 -0.277211)
(9.90165 0.0358026 -0.273544)
(9.92089 0.0420906 -0.211888)
(9.81344 0.0282996 -0.235114)
(9.82932 0.0092117 -0.232296)
(9.77471 0.00255137 -0.244647)
(9.9531 0.0493391 -0.220532)
(10.1253 0.091169 -0.257282)
(9.93223 0.0490531 -0.198864)
(10.1052 0.0815138 -0.226322)
(10.0944 0.0732551 -0.214293)
(0.901273 1.24924 0.517434)
(-1.11692 1.40498 -0.598566)
(-1.26573 1.25549 -0.377232)
(1.95267 1.55089 0.56437)
(-0.668683 1.75604 -0.261908)
(0.810402 1.08711 0.305263)
(-0.716567 0.976163 0.124376)
(-1.19212 1.43495 -0.362817)
(-1.42334 1.56693 -0.635288)
(-1.07612 1.24413 -0.610173)
(-0.870437 1.10123 -0.699418)
(1.94196 1.21122 0.0623911)
(2.45168 1.50247 0.429781)
(0.232703 0.878927 -0.004954)
(-0.689447 0.818308 -0.101396)
(1.20722 1.59263 0.656385)
(-0.567278 1.18133 0.028587)
(12.4673 -0.278838 -0.0170739)
(12.8485 -0.28495 -0.0208402)
(12.8485 -0.288942 -0.0204328)
(12.8686 -0.289064 -0.0157185)
(12.2495 -0.277491 -0.0172258)
(12.5024 -0.276423 -0.0187499)
(12.5018 -0.287831 0.00477489)
(12.362 -0.26862 -0.0168339)
(10.0175 -0.00990022 -0.0196156)
(10.0278 -0.00916086 -0.0164701)
(10.021 -0.014881 -0.022044)
(10.0212 -0.0194126 -0.0154646)
(10.0124 -0.0174051 -0.00661106)
(10.0239 -0.0172764 -0.00573931)
(9.85555 0.000739434 -0.0204059)
(9.93375 -0.0144359 -0.0149356)
(9.94527 -0.0181598 -0.0109828)
(9.90235 -0.0188101 -0.00155517)
(9.87124 -0.0258221 -0.0229895)
(10.7503 0.115545 0.0666784)
(10.7868 0.138948 0.186411)
(10.386 0.0976012 0.112331)
(10.3748 0.0325156 0.0381524)
(10.7649 0.0873363 0.203998)
(10.6391 0.151768 0.115519)
(10.5396 0.201882 -0.0212146)
(10.8527 0.107188 0.266932)
(10.8452 0.131834 0.275783)
(10.7425 0.129718 0.269462)
(10.5466 0.153904 0.126753)
(10.4487 0.126551 0.0892743)
(10.4934 0.123614 0.141197)
(10.5459 0.16641 0.0558991)
(10.4907 0.093652 0.149959)
(10.5297 0.0582466 0.0820562)
(10.6311 0.117524 0.227737)
(10.7249 0.116165 0.244997)
(11.3111 0.00615725 0.365193)
(11.3833 0.0797025 0.316447)
(11.3853 0.0560749 0.34684)
(11.3135 0.0338528 0.313243)
(11.3091 0.0193484 0.303759)
(11.3006 0.0799147 0.322007)
(11.2315 0.0379915 0.301845)
(11.2378 0.0279397 0.346292)
(11.1862 -0.00775371 0.319119)
(11.9348 0.0363128 0.183324)
(11.9415 0.0222355 0.203575)
(11.8328 0.0152331 0.236645)
(11.945 0.0315301 0.15353)
(11.9784 0.0200934 0.17318)
(11.6756 0.0252403 0.117526)
(11.8487 0.00561858 0.244784)
(11.8822 -0.00488109 0.209218)
(12.8156 0.0426186 0.00954122)
(12.9084 0.0582119 0.0423484)
(12.678 0.0231484 -0.053743)
(12.6987 0.0921898 0.0239125)
(13.1121 0.0492952 0.141989)
(13.0568 0.0924722 0.18643)
(12.8763 0.0567298 0.0841868)
(12.7094 0.0887339 0.0218899)
(12.679 0.0760697 0.0691084)
(12.6153 0.074636 -0.000157777)
(13.0341 0.0841096 0.173465)
(12.7024 0.0912978 0.0333939)
(12.7189 0.0367239 -0.0045989)
(13.0167 0.0837301 0.214832)
(12.6348 0.081239 0.0677494)
(11.5271 1.08627 0.898169)
(11.2829 1.24464 0.887345)
(11.1948 1.3087 0.848662)
(11.3844 1.21837 0.800211)
(11.2508 1.11233 0.760105)
(11.7232 0.94941 0.865791)
(11.5628 0.76033 0.559221)
(11.4393 0.885118 0.686784)
(11.5667 1.27622 1.02589)
(11.45 0.961077 0.662968)
(11.5544 1.07683 0.700761)
(11.8172 1.14862 0.903916)
(11.6451 0.937214 0.606722)
(12.946 -0.0702726 -0.0720455)
(13.0692 -0.029994 -0.088438)
(12.9655 -0.00622822 -0.0384406)
(12.7854 -0.0343672 -0.0123436)
(12.8151 -0.0137634 -0.000731485)
(12.6779 -0.0207709 -0.041139)
(12.9147 -0.0704916 -0.0384179)
(12.8538 -0.0816675 -0.0135291)
(12.7139 -0.0892777 3.43582e-05)
(13.0605 -0.0356329 -0.102676)
(12.8021 -0.0378444 -0.0311911)
(12.9442 -0.0635872 -0.0578585)
(12.6984 -0.0337344 -0.0158105)
(12.6554 -0.0266152 0.00065778)
(9.9708 -0.0875065 -0.767171)
(9.40956 -0.253607 -0.928903)
(9.25399 -0.0779125 -1.02052)
(8.56121 -0.133419 -0.845232)
(7.99078 -0.225228 -0.926301)
(8.40198 -0.107432 -0.905161)
(11.7555 0.421221 -0.657636)
(11.5999 0.269649 -0.498105)
(11.6822 0.247199 -0.472117)
(11.7754 0.304804 -0.504655)
(11.8939 0.327813 -0.512418)
(11.5353 0.222152 -0.215606)
(11.3725 0.347923 -0.147074)
(11.4262 0.340796 -0.118359)
(11.5551 0.378425 -0.247659)
(11.8139 0.381594 -0.257678)
(11.6591 0.31141 -0.0652406)
(11.8196 -0.00263344 -0.104177)
(11.8675 -0.0178355 -0.0420721)
(11.9104 -0.0255385 -0.0376226)
(12.1285 -0.050463 -0.0669798)
(12.0524 -0.00047384 -0.12487)
(11.724 -0.0150699 -0.0602495)
(11.7312 0.046761 -0.0887888)
(12.0355 0.000452478 -0.138593)
(11.9217 -0.00290327 -0.0878154)
(11.8014 -0.0348844 -0.0249966)
(12.0326 0.00341896 -0.137019)
(11.6924 0.0158125 -0.0965698)
(11.6544 0.00150465 -0.0173218)
(11.6685 -0.00260763 -0.0451677)
(11.825 0.419946 -0.0312729)
(11.8966 0.436762 0.00988478)
(11.7292 0.415237 -0.0260256)
(12.0712 0.385364 -0.00598923)
(11.9296 0.376563 0.0377064)
(11.835 0.457727 -0.0319923)
(11.9137 0.4601 -0.00872871)
(11.8719 0.499797 -0.0557371)
(11.774 0.486677 -0.0243158)
(12.1666 0.452171 -0.085095)
(12.2046 0.426859 -0.0743918)
(11.9534 0.457242 -0.0191522)
(11.9264 0.46699 -0.0419427)
(11.9936 0.45481 -0.00521956)
(12.1495 0.00219496 -0.286945)
(11.9364 -0.00177246 -0.315178)
(12.3248 -0.056922 -0.284036)
(12.2716 -0.0400064 -0.224709)
(12.289 -0.0549225 -0.225088)
(12.3508 -0.0618527 -0.298789)
(12.0657 -0.00697076 -0.233851)
(11.9333 0.0237977 -0.275048)
(11.9383 -0.0058477 -0.294686)
(11.8854 -0.0105631 -0.276514)
(12.0517 -0.0272134 -0.302106)
(12.031 -0.0157696 -0.214415)
(12.0401 -0.00994669 -0.205176)
(11.9055 0.000299922 -0.2974)
(11.8552 -0.00676917 -0.27956)
(11.9696 -0.00368791 -0.213486)
(11.9355 0.0192259 -0.274128)
(10.4681 -0.0674532 0.114754)
(10.2197 0.0243357 0.0333596)
(10.3308 0.0287214 0.027232)
(10.3036 0.0477294 0.0446116)
(10.5617 -0.11737 0.101777)
(10.7069 -0.144839 0.0801757)
(10.6126 -0.219332 0.250228)
(11.7669 -0.168253 0.221225)
(11.8406 -0.255049 0.210667)
(11.7846 -0.225292 0.214722)
(10.5465 -0.0695083 0.130464)
(10.5344 -0.162712 0.155721)
(12.1147 0.165226 -0.0587587)
(11.3637 0.103697 0.0263077)
(11.7614 0.0646789 -0.0895304)
(11.4869 0.00215636 -0.0282803)
(11.4604 0.1058 0.0500487)
(11.7153 0.000698905 -0.0340202)
(11.6295 0.0217337 -0.030528)
(11.5964 0.10468 0.0154712)
(12.041 0.152389 -0.144438)
(11.9631 0.137571 -0.12275)
(12.0645 0.168426 -0.0578948)
(11.9553 0.132434 -0.123628)
(12.0829 0.162292 -0.0471836)
(12.3468 0.0371179 0.113847)
(12.2784 0.00749938 0.125054)
(12.4717 0.0549284 0.136844)
(12.4059 0.000464931 0.155656)
(12.3757 -0.0131596 0.16045)
(12.3032 0.0312115 0.100473)
(12.3074 0.000787942 0.114461)
(12.3856 0.0211633 0.131201)
(12.3593 0.00297138 0.14038)
(12.3811 0.0513892 0.108703)
(12.737 0.110934 0.133341)
(12.6645 0.0932739 0.132935)
(12.4005 0.0402852 0.107614)
(12.6036 0.0892087 0.11113)
(12.5848 0.0873401 0.105795)
(9.58275 0.219073 0.00735704)
(9.53967 0.162663 0.0233399)
(9.3247 0.0190262 -0.0828877)
(9.31918 0.0096069 -0.0767922)
(9.4591 0.162186 -0.0248937)
(9.61517 0.15538 -0.0275522)
(9.63011 0.196506 -0.0267947)
(9.41973 0.0635532 -0.0335679)
(9.50001 0.0885261 -0.0318281)
(3.95289 -0.114987 -0.725238)
(3.8142 -0.0320826 -0.670486)
(3.88897 -0.290919 -0.663951)
(3.99869 -0.318986 -0.682513)
(3.66523 -0.233997 -0.662988)
(3.5584 -0.0837851 -0.702456)
(3.62677 -0.242093 -0.854247)
(3.70646 -0.414264 -0.747743)
(3.74336 -0.0962673 -0.763387)
(3.83558 -0.344395 -0.855985)
(3.97764 -0.455588 -0.752307)
(4.07085 -0.314485 -0.750494)
(4.1042 -0.422322 -0.725119)
(2.88158 0.370089 0.529141)
(1.22886 0.361699 0.804703)
(0.1059 0.0250548 0.153238)
(1.91378 0.182266 0.272136)
(2.27683 -0.131113 0.261905)
(2.10714 -0.307882 0.366217)
(2.40082 0.244047 0.296363)
(-1.25654 -0.0577963 -0.0293443)
(-1.16698 0.470787 0.130996)
(-0.580723 0.316153 0.275812)
(-0.67237 -0.133001 0.147989)
(12.4373 0.0933894 0.122375)
(12.5462 0.116711 0.1291)
(12.5554 0.12644 0.117946)
(12.2744 0.149857 0.0566488)
(12.2049 0.142608 0.0448677)
(12.2533 0.101228 0.0693548)
(12.275 0.125843 0.0624911)
(12.2037 0.133076 0.0477329)
(12.128 0.127008 0.0523024)
(12.4191 0.0802591 0.112166)
(12.464 0.0925008 0.0975897)
(11.9958 0.043762 0.0338012)
(11.973 0.0449116 0.0613464)
(12.0167 0.0844648 0.0120621)
(12.1725 0.0913663 0.0708342)
(11.9428 0.0439617 0.0478113)
(11.9357 0.0396892 0.0262901)
(-1.373 -0.13417 -0.973252)
(-0.986986 -0.824887 -0.453536)
(-1.10645 -0.270965 -0.664173)
(-1.10154 -1.2643 -0.147275)
(-2.37262 -0.0826858 -0.23459)
(-2.10639 -0.22182 -0.38507)
(-2.37756 0.176827 -0.479795)
(-0.831881 -1.07575 0.0312743)
(-1.59803 -0.390809 -0.488558)
(-1.45157 -0.793089 -0.112868)
(-1.54739 -0.783913 -0.0468455)
(10.9384 0.240367 0.00662972)
(10.9297 0.243088 -0.0131204)
(10.7042 0.151565 0.00796926)
(10.4659 0.048171 0.0222824)
(10.5251 0.183984 -0.0278869)
(10.4645 0.090592 -0.0220815)
(10.4398 0.0895123 -0.044775)
(10.3654 0.0788182 0.0129055)
(10.5905 0.140873 0.0487363)
(10.2425 0.017875 0.000222226)
(10.5628 0.145501 0.0352916)
(11.5812 0.377294 0.171915)
(11.5606 0.356745 0.139988)
(11.5938 0.393892 0.174535)
(11.5714 0.350515 0.130938)
(11.3786 0.344511 0.0838227)
(11.4472 0.371444 0.123025)
(11.207 0.435012 0.0516058)
(11.2855 0.439241 0.0768155)
(11.4394 0.426234 0.109555)
(11.3107 0.412601 0.0756291)
(11.125 0.408773 0.0036158)
(11.1936 0.426293 0.0218185)
(11.2751 0.33432 0.0580142)
(11.336 0.349785 0.0737373)
(11.2433 0.364722 0.0548406)
(5.2628 0.0555006 0.27484)
(4.43401 0.0539311 0.128049)
(4.68517 0.0414715 -0.0183656)
(5.29891 -0.0674183 0.000391773)
(3.67462 0.0265457 -0.0491874)
(12.2171 -0.0344117 0.528025)
(12.3141 -0.0558367 0.520865)
(12.4402 -0.0672721 0.567744)
(12.3702 -0.0617404 0.563126)
(12.6934 -0.103996 0.556339)
(12.67 -0.115499 0.574998)
(12.4856 -0.0688384 0.54147)
(7.93131 2.54808 -0.0307048)
(7.4897 2.71541 -0.543387)
(8.86383 2.31677 -0.297577)
(8.71645 2.59201 -0.460961)
(7.96714 3.00642 -0.102398)
(7.44375 3.04369 -0.638631)
(8.07383 2.28446 -0.00618641)
(7.56587 2.39178 -0.629973)
(8.20217 3.06095 -1.29111)
(7.34168 3.11289 -1.35546)
(8.27776 2.17115 -0.105627)
(7.9522 2.17796 -0.69817)
(8.2867 2.7316 -1.19961)
(7.75094 2.69162 -1.02717)
(8.93936 2.22712 -0.302536)
(8.45179 2.48311 -1.13118)
(7.88998 2.44223 -0.964483)
(8.96004 2.27635 -0.5026)
(9.62681 2.10322 -0.342445)
(9.78232 1.94257 -0.416113)
(9.5988 1.99143 -0.640717)
(9.5273 2.08393 -0.732531)
(9.53717 1.80271 -0.630849)
(9.45913 2.11233 -0.722886)
(9.57257 1.94025 -0.213278)
(9.50341 2.11361 -0.266427)
(9.4318 2.23142 -0.601163)
(9.0075 2.05445 -0.544054)
(9.31879 1.73414 -0.460232)
(9.29543 1.90575 -0.257959)
(9.01186 2.24752 -0.217236)
(10.2235 3.22436 -0.982406)
(10.5723 2.79117 -0.911257)
(10.9914 2.11839 -0.373045)
(10.9037 2.01396 -0.375326)
(10.3656 2.50641 -0.885165)
(10.5913 2.49695 -0.804197)
(10.7245 2.22736 -0.524726)
(10.6995 2.1533 -0.529123)
(10.4773 3.2191 -0.831185)
(10.8082 2.95058 -0.688151)
(9.97658 2.85912 -0.913733)
(10.053 2.95314 -0.899092)
(10.7586 2.64817 -0.309225)
(10.6712 2.44687 -0.283641)
(10.9824 2.37934 -0.366369)
(10.4208 2.1916 -0.600493)
(10.1067 2.65334 -0.558003)
(10.1771 2.78197 -0.589764)
(10.4827 2.74443 -0.339162)
(10.4727 2.60502 -0.363624)
(10.4089 2.8752 -0.511682)
(10.326 2.538 -0.431167)
(13.0932 -0.0535491 0.28559)
(12.8446 -0.0570184 0.26144)
(12.9184 -0.102097 0.272787)
(12.8481 -0.0544409 0.270854)
(12.9292 -0.101733 0.276505)
(13.1463 -0.0419406 0.300271)
(12.9819 -0.0288765 0.291318)
(13.1671 -0.0808979 0.261788)
(12.9326 -0.0541652 0.266138)
(13.1028 -0.0399715 0.293482)
(13.0739 -0.116886 0.262795)
(12.9791 -0.0414709 0.283737)
(13.152 -0.0988371 0.257285)
(12.999 -0.0481753 0.27861)
(13.1651 -0.107694 0.254319)
(13.1424 -0.0619006 0.270275)
(4.59599 0.186592 -0.349442)
(-1.61099 -0.0881284 -0.359055)
(2.53095 2.17192 0.466213)
(2.75999 2.58675 0.387281)
(10.0601 1.07336 -1.75515)
(10.2137 1.1952 -2.06659)
(4.21547 2.31792 -0.523318)
(4.44652 2.04778 -0.251584)
(10.7686 0.696205 -1.57442)
(10.9 0.696144 -1.76843)
(0.442553 0.57534 0.616736)
(6.02236 0.222582 -0.745808)
(4.55436 0.824291 -0.104195)
(5.03069 2.07016 -0.32791)
(10.026 1.22435 -1.56048)
(10.9036 1.0979 -1.38561)
(12.5703 0.117652 0.305404)
(12.6233 0.163521 0.2946)
(12.5098 0.11787 0.244127)
(12.4663 0.119298 0.20598)
(12.4312 0.127269 0.215773)
(12.4446 0.118212 0.26457)
(12.5654 0.125306 0.257695)
(12.6306 0.136344 0.295286)
(12.5553 0.166851 0.303922)
(12.5133 0.105968 0.30792)
(12.3742 0.135543 0.206525)
(12.3537 0.101552 0.156236)
(12.4093 0.123174 0.225874)
(12.4392 0.121146 0.266975)
(12.3669 0.102143 0.148944)
(12.4347 0.108171 0.161802)
(12.53 0.110249 0.195482)
(12.4765 0.120246 0.208602)
(9.73173 1.76063 -0.149642)
(9.42151 1.68569 0.598228)
(9.33207 2.05822 0.761621)
(9.70603 1.92656 0.106947)
(9.60099 2.07699 -0.0203091)
(9.21723 2.53337 0.222924)
(8.70467 2.72476 0.188301)
(9.35679 1.72979 -0.144649)
(9.53536 2.08569 0.52407)
(9.00582 1.93706 0.568395)
(8.85653 2.20848 0.603784)
(8.79559 2.68494 0.311091)
(9.29681 2.42156 0.472275)
(9.72229 1.79254 0.304663)
(9.66676 1.62072 0.300192)
(9.62114 1.65845 -0.0899987)
(10.5742 0.662231 -0.270846)
(10.6476 0.66376 -0.222521)
(10.6056 0.607364 -0.258946)
(10.6089 0.775807 -0.295598)
(10.7182 0.841316 -0.201334)
(10.5491 0.554691 -0.277356)
(10.4836 0.63844 -0.346157)
(10.5216 0.728048 -0.374053)
(10.5822 0.744662 -0.36592)
(10.5178 0.731852 -0.409344)
(10.5734 0.741625 -0.350075)
(10.6462 0.746724 -0.389929)
(10.5935 0.736347 -0.432774)
(10.6985 0.764705 -0.336491)
(10.6389 0.734702 -0.328432)
(10.489 0.602195 -0.31283)
(10.4555 0.632209 -0.370205)
(11.6867 -0.0443682 0.754174)
(11.6944 -0.0185553 0.725538)
(11.8134 0.130656 0.623788)
(11.8162 0.163269 0.638965)
(11.8087 0.172027 0.642017)
(11.8067 0.12772 0.619201)
(11.7039 -0.00847117 0.818376)
(11.6809 0.000349048 0.845577)
(11.8104 0.295337 0.76481)
(11.8007 0.386245 0.914427)
(11.672 -0.00433165 0.680136)
(11.8168 0.132256 0.625842)
(11.8226 0.296798 0.769263)
(11.822 0.332305 0.850917)
(11.6787 0.0160677 0.647947)
(11.859 0.296003 0.83375)
(11.7472 0.0126462 0.780502)
(10.0671 -1.51438 0.569368)
(10.417 -1.46643 0.540705)
(10.5204 -1.42481 0.650057)
(9.8606 -1.5352 0.641911)
(10.4701 -1.43246 0.403194)
(9.79534 -1.57649 0.576586)
(9.968 -1.48448 0.163757)
(9.69766 -1.61213 0.196818)
(10.4991 -1.3796 0.443846)
(10.5801 -1.40282 0.534992)
(10.5572 -1.40074 0.656126)
(9.89662 -1.60808 0.596842)
(9.449 -1.6751 0.112174)
(9.80257 -1.49944 0.131515)
(9.65966 -1.65535 0.0760463)
(10.1262 -1.38615 0.17923)
(9.36752 -1.76814 0.15007)
(9.39829 -1.73947 0.122163)
(12.2138 -0.595639 0.309055)
(12.4046 -0.501247 0.342606)
(12.3954 -0.465489 0.323575)
(12.3671 -0.420233 0.180972)
(12.1634 -0.513595 0.163602)
(12.4216 -0.371484 0.279815)
(12.1969 -0.598499 0.314131)
(12.3365 -0.503679 0.326164)
(12.3221 -0.489975 0.312559)
(12.4021 -0.362091 0.279617)
(12.297 -0.445754 0.174038)
(12.2575 -0.51211 0.27527)
(12.3254 -0.411609 0.219842)
(12.137 -0.61809 0.244667)
(11.8161 -0.837607 0.504949)
(11.8769 -0.785455 0.522837)
(11.7447 -0.732311 0.827672)
(12.0969 -0.584299 0.807987)
(11.7541 -0.71609 0.835164)
(11.7251 -0.765755 0.829469)
(11.5849 -0.886163 0.621544)
(11.8967 -0.766032 0.488831)
(11.9794 -0.704916 0.535629)
(11.6802 -0.867807 0.757828)
(11.694 -0.829404 0.728366)
(11.6269 -0.862492 0.637047)
(11.8936 -0.769885 0.521738)
(12.1802 -0.594413 0.604743)
(12.1802 -0.599224 0.582697)
(11.7001 -0.812236 0.581335)
(12.1309 -0.621734 0.646362)
(11.8156 -0.755369 0.67269)
(10.6418 3.33808 -0.842573)
(11.0151 3.26327 -0.745517)
(11.0072 3.0186 -0.693065)
(10.4294 3.27951 -0.61643)
(10.7421 3.47865 -0.624747)
(11.3586 2.97249 -0.403905)
(11.2061 2.60839 -0.366674)
(11.0421 3.41163 -0.0678817)
(11.2551 3.23246 -0.0329418)
(10.5905 3.33897 -0.225036)
(11.1095 2.54488 -0.310867)
(11.1009 3.57233 -0.253267)
(11.3342 -0.0738145 0.811448)
(11.9906 -0.0580961 0.818432)
(11.0849 -0.277251 0.762207)
(11.9458 -0.052955 0.802897)
(11.1843 -0.0247762 0.820951)
(11.6125 -0.221339 0.703008)
(11.1597 -0.203986 0.737275)
(11.215 -0.262952 0.699915)
(11.4732 -0.258318 0.726842)
(12.283 -0.054328 0.679818)
(12.4356 -0.0658939 0.618798)
(12.2648 -0.103184 0.649988)
(12.0417 -0.184652 0.586588)
(12.1879 -0.171823 0.582085)
(12.4138 -0.0791112 0.61639)
(12.1789 -0.164741 0.573512)
(12.3652 -0.0484446 1.02993)
(12.1893 0.0766076 0.984332)
(12.3056 -0.00913035 1.01083)
(12.1873 0.0799615 0.951049)
(11.8408 0.0931419 1.13028)
(11.7115 -0.0976786 1.2218)
(11.3565 -0.197791 1.24948)
(11.8397 0.102186 1.24149)
(11.8611 0.0889473 1.11337)
(12.1635 0.0895992 0.976868)
(12.2583 0.0141218 1.00779)
(12.1921 -0.142678 1.08693)
(11.3982 -0.2221 1.19599)
(12.1357 -0.116242 1.06505)
(11.9896 -0.250753 1.10053)
(11.985 -0.225078 1.11356)
(12.4184 0.478903 0.568296)
(12.4839 0.494267 0.590055)
(12.5353 0.424802 0.538389)
(12.3492 0.540712 0.408976)
(12.1501 0.719287 0.535866)
(12.3729 0.297023 0.50371)
(12.3009 0.307758 0.494042)
(12.5577 0.586821 0.528144)
(12.444 0.662606 0.597436)
(12.3876 0.648091 0.430095)
(12.2357 0.733322 0.532855)
(12.3601 0.602985 0.60253)
(12.2994 0.561259 0.575303)
(12.1809 0.525169 0.599212)
(12.2686 0.443104 0.492176)
(12.4471 0.311318 0.50682)
(12.4098 0.370141 0.469259)
(12.3319 0.365869 0.489883)
(12.449 0.537736 0.47166)
(11.1338 -0.278927 -0.617525)
(11.0928 -0.288829 -0.602296)
(11.4596 -0.303669 -0.539592)
(10.7247 -0.300894 -0.624325)
(11.1783 -0.264467 -0.616137)
(10.802 -0.327382 -0.607075)
(11.0672 -0.342978 -0.613446)
(11.5904 -0.281001 -0.571999)
(11.0381 -0.347755 -0.536771)
(11.7917 -0.321037 -0.455175)
(10.8138 -0.353462 -0.598606)
(11.1759 -0.395746 -0.54208)
(11.2405 -0.40439 -0.463455)
(11.2224 -0.42037 -0.485685)
(9.01329 -0.432868 -0.48168)
(8.94758 -0.419316 -0.474454)
(9.62431 -0.459022 -0.334783)
(9.24117 -0.448549 -0.418095)
(9.3057 -0.443716 -0.400715)
(9.40166 -0.399688 -0.428589)
(10.0557 -0.375025 -0.269269)
(9.80502 -0.402703 -0.472655)
(9.63952 -0.394298 -0.486106)
(10.5047 -0.356147 -0.283975)
(10.342 -0.353508 -0.298574)
(9.19866 -0.417794 -0.525637)
(10.2319 -0.343203 -0.294138)
(10.017 -0.354692 -0.408294)
(10.0106 -0.34563 -0.395589)
(10.487 -0.358689 -0.290557)
(10.3872 -0.34928 -0.301412)
(10.0863 -0.300697 -0.368564)
(11.7149 1.29186 -0.164471)
(11.3224 1.39478 -0.582486)
(11.0103 1.52541 -0.837753)
(12.3609 0.622446 -0.262961)
(12.2727 0.842117 -0.231133)
(11.7231 1.11251 -0.495985)
(11.9284 1.03697 -0.182146)
(12.4768 0.576084 -0.25624)
(12.3076 0.847442 -0.2034)
(11.3403 1.09618 -0.802277)
(11.8658 0.827685 -0.610914)
(4.74642 -0.846451 -0.595431)
(4.93127 -0.918093 -0.560336)
(4.63234 -0.611714 -0.568162)
(4.39251 -0.503105 -0.626838)
(3.03543 0.124046 -0.825847)
(2.41325 0.386714 -0.559363)
(2.39262 0.577729 -0.886616)
(2.01586 0.534821 -0.706778)
(5.15044 -0.960892 -0.714703)
(5.43659 -1.03398 -0.703201)
(4.3893 -0.605629 -0.537053)
(3.31323 0.0544917 -0.679383)
(3.2648 0.217524 -0.723497)
(3.01196 0.124099 -0.501178)
(2.70092 0.400834 -0.654569)
(2.8326 0.26764 -0.565656)
(2.12616 0.469257 -0.759246)
(5.11986 -0.864894 -0.652802)
(4.63963 -0.554082 -0.756244)
(5.01299 -0.778104 -0.680548)
(4.4345 -0.529216 -0.857255)
(13.3089 -0.147883 0.325383)
(13.3156 -0.154277 0.296684)
(13.3201 -0.0886236 0.345933)
(13.3406 -0.117565 0.310989)
(13.3188 -0.0986786 0.351041)
(13.2945 -0.1539 0.317881)
(13.2979 -0.151212 0.330096)
(13.3039 -0.080744 0.323303)
(13.276 -0.0691636 0.34954)
(13.1872 -0.0782809 0.366741)
(13.1932 -0.0942631 0.345635)
(13.1423 -0.0776396 0.372727)
(13.3014 -0.0884359 0.316338)
(13.1902 -0.0714217 0.363766)
(13.1097 -0.0651423 0.351135)
(13.2091 -0.0792224 0.328308)
(13.1175 -0.0546096 0.352359)
(12.0776 0.374129 0.957666)
(11.9314 0.400487 0.990058)
(11.6205 0.301319 1.16103)
(10.9535 0.352925 1.20161)
(12.04 0.358675 1.01698)
(11.9201 0.357112 1.09019)
(10.9349 0.794369 0.668098)
(10.9204 0.663719 0.833416)
(11.7298 0.292018 1.14607)
(10.9513 0.361775 1.16472)
(11.1148 0.581914 1.166)
(8.68475 0.388838 0.647856)
(8.69875 0.526586 0.555875)
(8.5125 0.570426 0.597328)
(7.024 0.548941 0.598429)
(7.93833 0.390938 0.707964)
(6.08036 0.587357 0.668422)
(5.45038 0.599778 0.679994)
(6.58923 0.431125 0.847617)
(7.77406 0.442409 0.781398)
(8.08844 0.470186 0.672183)
(6.38714 0.589818 0.858435)
(6.69871 0.586317 0.768047)
(6.60271 0.543941 0.857916)
(12.3277 -0.325682 -0.263115)
(12.2912 -0.304134 -0.255708)
(12.391 -0.333524 -0.17048)
(12.4175 -0.333281 -0.170681)
(12.2268 -0.381325 -0.251385)
(12.2382 -0.368604 -0.240919)
(12.2017 -0.346979 -0.313977)
(12.1804 -0.345695 -0.320166)
(12.3669 -0.303629 -0.179851)
(12.4386 -0.322187 -0.192019)
(12.2377 -0.303998 -0.272902)
(12.2592 -0.290491 -0.256162)
(12.4694 -0.325854 -0.158851)
(12.196 -0.360721 -0.282597)
(12.4211 -0.31263 -0.14401)
(12.3866 -0.309067 -0.164431)
(12.2411 -0.30486 -0.248945)
(12.2807 -0.299354 -0.223946)
(12.376 -0.30767 -0.159725)
(12.3822 -0.312382 -0.154006)
(12.3444 -0.31512 -0.187112)
(12.2623 -0.329362 -0.23799)
(11.8635 -0.482564 -0.445455)
(12.3817 -0.417311 -0.375794)
(11.628 -0.372656 -0.53088)
(12.4304 -0.320711 -0.413905)
(12.4615 -0.420536 -0.37117)
(11.385 -0.457997 -0.392611)
(11.5697 -0.320757 -0.537223)
(12.4508 -0.310517 -0.409898)
(12.0095 -0.324061 -0.494919)
(11.3683 -0.449808 -0.369793)
(11.9325 -0.404634 -0.319468)
(11.9797 -0.434605 -0.3649)
(11.2001 -0.366555 -0.564327)
(12.4089 -0.317562 -0.416083)
(11.9965 -0.31172 -0.496321)
(11.0709 -0.377262 -0.592331)
(11.5964 -0.330151 -0.592249)
(12.1727 -0.378538 -0.406589)
(12.4468 -0.396203 -0.378289)
(12.4222 -0.3828 -0.397313)
(12.6224 0.393015 0.222899)
(12.5138 0.420298 0.226359)
(12.5265 0.444014 0.292785)
(12.5597 0.434104 0.355998)
(12.5898 0.391179 0.211435)
(12.5199 0.415446 0.224443)
(12.5269 0.441203 0.366308)
(12.4716 0.458146 0.317106)
(12.6747 0.379102 0.301404)
(12.6527 0.370377 0.359679)
(12.6836 0.370587 0.326858)
(12.5937 0.383894 0.23948)
(12.5635 0.389283 0.237362)
(12.5042 0.419476 0.231856)
(12.7002 0.366817 0.330796)
(12.6717 0.367301 0.376452)
(12.6097 0.37257 0.321012)
(12.4804 0.420603 0.231467)
(12.4471 0.446524 0.321981)
(12.4886 0.442173 0.385886)
(12.4522 0.433099 0.322789)
(12.4486 0.443671 0.36129)
(11.3143 0.365886 0.807804)
(11.3187 0.452177 0.813241)
(12.3841 0.309539 0.791653)
(12.323 0.346611 0.757982)
(12.2103 0.314556 0.870329)
(12.0878 0.39767 0.887463)
(12.2456 0.310415 0.830704)
(12.1894 0.312823 0.882096)
(11.9814 0.297486 0.850391)
(11.4403 0.336868 0.79023)
(11.3477 0.302126 0.755407)
(11.4671 0.34181 0.742024)
(12.1559 0.436322 0.779715)
(12.2677 0.362517 0.702552)
(12.3424 0.316031 0.744791)
(11.6145 0.339838 0.770425)
(11.8883 0.375046 0.706488)
(12.3597 0.431679 0.62375)
(12.3628 0.51934 0.602178)
(12.6262 0.266954 0.585826)
(12.602 0.32674 0.542661)
(12.6592 0.2799 0.565133)
(12.7754 0.274929 0.5662)
(12.8244 0.23691 0.542269)
(12.7193 0.38532 0.482921)
(12.6872 0.367356 0.497549)
(12.6317 0.46597 0.468642)
(12.7052 0.451302 0.46132)
(12.8144 0.291178 0.533405)
(12.6791 0.51957 0.460233)
(12.594 0.525393 0.456304)
(10.9628 0.818693 -0.425852)
(10.9086 0.74924 -0.276054)
(10.8524 0.700101 -0.27279)
(10.8984 0.758552 -0.455349)
(10.8302 0.752298 -0.458994)
(10.9552 0.610374 -0.317952)
(10.8951 0.548275 -0.28813)
(10.9917 0.672996 -0.331241)
(10.9453 0.60995 -0.332242)
(10.8719 0.559369 -0.300854)
(13.0449 -0.152631 0.494613)
(13.0421 -0.170541 0.493284)
(12.9788 -0.12085 0.534562)
(12.9809 -0.12403 0.506423)
(13.0163 -0.198638 0.511082)
(12.9935 -0.202435 0.518025)
(13.011 -0.136565 0.510591)
(12.9882 -0.110081 0.519112)
(13.0007 -0.195721 0.522289)
(12.9698 -0.098957 0.53968)
(12.973 -0.123537 0.55551)
(12.969 -0.104931 0.559329)
(12.9716 -0.087486 0.543281)
(12.9553 -0.161457 0.550827)
(12.9823 -0.0863679 0.54428)
(12.9725 -0.100515 0.555781)
(12.9464 -0.157168 0.547758)
(8.38971 0.0422309 0.157306)
(8.30637 0.0293573 0.199616)
(8.15198 0.087524 0.219746)
(7.53201 -0.156357 -0.0148059)
(7.51269 -0.104266 -0.0841134)
(8.04308 0.0969896 0.111017)
(8.30817 -0.407039 -0.41354)
(8.32774 -0.349988 -0.382033)
(8.14326 -0.309639 -0.332163)
(7.96415 -0.309988 -0.302773)
(8.23158 0.116753 0.249549)
(8.30798 0.089336 0.180697)
(8.38101 -0.0997864 0.0916429)
(8.39528 -0.0174296 0.10067)
(7.90179 -0.268919 -0.273688)
(7.91331 -0.18547 -0.252124)
(7.57573 -0.0916863 -0.12787)
(8.18825 0.0874539 0.104645)
(8.34686 -0.134689 0.0477017)
(8.19528 -0.0339863 -0.00508185)
(11.806 -0.00228782 0.509296)
(11.6577 -0.0651545 0.498766)
(11.6513 -0.0024904 0.480267)
(11.7677 0.0233969 0.503511)
(11.6411 -0.108417 0.518568)
(11.3547 -0.0800539 0.511096)
(11.5751 -0.176395 0.501154)
(11.8214 -0.0201254 0.461635)
(11.8136 0.00160602 0.490761)
(11.7577 -0.0589075 0.490844)
(11.3854 -0.197885 0.442923)
(11.3261 -0.109208 0.509537)
(11.7829 0.0272174 0.492504)
(11.538 -0.0778482 0.488513)
(11.5461 -0.115374 0.470128)
(11.2902 -0.165076 0.468582)
(3.10725 -0.0565262 0.554085)
(3.15031 -0.275537 0.71961)
(2.05313 -0.255073 0.933601)
(1.93296 0.00189076 0.867617)
(6.05883 -0.564758 0.407937)
(4.3986 -0.468721 0.3884)
(7.61 -0.214691 0.446547)
(5.4256 0.176131 0.499422)
(3.08607 0.441933 1.02985)
(4.48556 -0.0962277 0.784303)
(7.51901 -0.229135 0.357849)
(5.64932 -0.18124 0.514921)
(4.5746 0.310376 0.457281)
(12.2471 0.0137462 0.884899)
(12.1914 0.10934 0.949076)
(12.3153 -0.0172729 0.860346)
(12.4581 -0.0465187 0.7824)
(12.6339 -0.0601962 0.726496)
(12.5249 -0.0316276 0.802137)
(12.1761 0.122813 0.964901)
(12.3485 0.196485 0.803193)
(12.4969 0.0394969 0.762704)
(12.4382 -0.0259977 0.759005)
(12.7233 -0.00621613 0.684229)
(12.3762 0.248554 0.763815)
(11.8174 0.379769 -0.139994)
(11.7715 0.283856 -0.166787)
(11.8226 0.247458 -0.181626)
(11.9138 0.380239 -0.117858)
(11.8533 0.325335 -0.117683)
(11.8921 0.299515 -0.137917)
(12.0465 0.360682 -0.151166)
(12.1391 0.368603 -0.168502)
(12.0423 0.272016 -0.164801)
(11.9963 0.259872 -0.162542)
(12.0623 0.586273 -0.250296)
(12.1485 0.579974 -0.250828)
(11.9835 0.532292 -0.268692)
(12.0463 0.523516 -0.252583)
(11.8897 0.523704 -0.271471)
(11.936 0.44377 -0.190972)
(11.951 0.352774 -0.128151)
(11.9959 0.535656 -0.240404)
(12.0242 0.41794 -0.168613)
(11.5758 -0.361597 0.249879)
(11.5096 -0.308779 0.311524)
(11.8244 -0.286559 0.198846)
(11.7976 -0.221423 0.252869)
(11.8434 -0.212061 0.277486)
(12.2304 -0.274716 0.345547)
(12.0266 -0.282218 0.340992)
(11.6699 -0.291026 0.283448)
(12.0066 -0.342103 0.228282)
(12.7088 -0.213946 0.486839)
(12.7098 -0.235568 0.467304)
(11.8356 -0.285762 0.353003)
(12.6965 -0.288117 0.355369)
(12.4711 -0.293984 0.336345)
(12.6461 -0.234679 0.42453)
(12.8358 -0.224454 0.474533)
(12.8646 -0.214922 0.441518)
(12.5162 -0.290016 0.400552)
(12.7957 -0.221123 0.400767)
(0.0908969 1.08628 -0.543263)
(0.155798 1.00544 -0.961851)
(0.886732 0.810457 -0.832711)
(0.634858 0.826052 -0.523246)
(0.566012 0.859425 -0.711199)
(0.626372 0.786679 -0.884096)
(1.48789 0.468077 -0.836569)
(1.82554 0.328954 -0.957195)
(2.00737 0.25216 -0.887287)
(2.01187 0.28858 -0.855597)
(2.77169 -0.00234867 -0.771374)
(2.85676 -0.0724447 -0.87828)
(1.94754 0.547783 -0.766552)
(2.56772 0.11137 -0.922641)
(2.20989 0.412829 -0.775397)
(1.25035 0.608535 -0.875513)
(10.9632 0.498392 -0.326032)
(10.8805 0.466615 -0.256837)
(10.9361 0.474938 -0.338884)
(11.0312 0.534718 -0.406184)
(10.9636 0.530094 -0.685681)
(10.8844 0.522163 -0.678933)
(10.8862 0.472834 -0.316087)
(10.9919 0.545102 -0.550809)
(10.9288 0.554056 -0.673992)
(10.8788 0.521274 -0.683555)
(10.85 0.39438 -0.387278)
(10.9459 0.456277 -0.500166)
(10.9306 0.542043 -0.502473)
(10.8087 0.406285 -0.390145)
(10.7639 0.404578 -0.398825)
(10.8368 0.499195 -0.524407)