/*--------------------------------*- C++ -*----------------------------------*\
  =========                 |
  \\      /  F ield         | OpenFOAM: The Open Source CFD Toolbox
   \\    /   O peration     | Website:  https://openfoam.org
    \\  /    A nd           | Version:  10
     \\/     M anipulation  |
\*---------------------------------------------------------------------------*/
FoamFile
{
    format      ascii;
    class       volScalarField;
    location    "13";
    object      C;
}
// * * * * * * * * * * * * * * * * * * * * * * * * * * * * * * * * * * * * * //

dimensions      [1 3 0 0 0 0 0];

internalField   nonuniform List<scalar> 
75457
(
0.49993
0.499919
0.49995
0.499969
0.499946
0.499949
0.499952
0.499949
0.499993
0.499992
0.499992
0.49995
0.499955
0.499983
0.499604
0.499661
0.499825
0.499719
0.499699
0.499829
0.499744
0.499787
0.499663
0.49966
0.49979
0.49944
0.499413
0.487153
0.484969
0.486773
0.488934
0.484324
0.484549
0.492807
0.492743
0.493297
0.492816
0.483491
0.485101
0.493334
0.493765
0.49338
0.493248
0.497672
0.49648
0.498622
0.498628
0.497562
0.499973
0.499751
0.499723
0.499968
0.499962
0.499776
0.499856
0.499887
0.499906
0.499905
0.499979
0.499968
0.499948
0.499975
0.5
0.5
0.5
0.5
0.5
0.5
0.5
0.5
0.5
0.5
0.5
0.5
0.5
0.5
0.5
0.226915
0.161944
0.188301
0.239014
0.148688
0.166351
0.145953
0.16086
0.149765
0.243511
0.302497
0.207075
0.270458
0.0695262
0.211399
0.22555
0.0557808
0.5
0.5
0.5
0.5
0.5
0.5
0.5
0.5
0.5
0.5
0.5
0.5
0.5
0.5
0.5
0.5
0.5
0.5
0.5
0.5
0.5
0.5
0.5
0.5
0.5
0.5
0.5
0.5
0.5
0.5
0.5
0.5
0.5
0.5
0.5
0.5
0.5
0.5
0.5
0.5
0.5
0.5
0.5
0.5
0.5
0.5
0.5
0.5
0.5
0.5
0.5
0.5
0.5
0.5
0.5
0.5
0.5
0.5
0.5
0.5
0.5
0.5
0.5
0.5
0.5
0.5
0.5
0.5
0.5
0.5
0.5
0.5
0.5
0.5
0.5
0.5
0.5
0.5
0.5
0.5
0.5
0.5
0.5
0.5
0.5
0.5
0.5
0.5
0.5
0.5
0.5
0.5
0.5
0.5
0.5
0.5
0.49898
0.498738
0.498595
0.497835
0.497327
0.497609
0.5
0.5
0.5
0.5
0.5
0.5
0.5
0.5
0.5
0.5
0.5
0.499995
0.499997
0.499997
0.499995
0.499988
0.499997
0.499995
0.499989
0.499992
0.499997
0.499987
0.499994
0.499997
0.499995
0.5
0.5
0.5
0.5
0.5
0.5
0.5
0.5
0.5
0.5
0.5
0.5
0.5
0.5
0.499891
0.499842
0.499888
0.499932
0.499934
0.499877
0.49994
0.499885
0.499835
0.499906
0.499862
0.499945
0.499959
0.499843
0.49988
0.49995
0.499883
0.495145
0.495396
0.495369
0.495453
0.496665
0.496847
0.496967
0.497969
0.497965
0.497961
0.495129
0.496922
0.499009
0.499243
0.49773
0.499009
0.499234
0.498985
0.498982
0.499228
0.497042
0.496622
0.498987
0.496923
0.498974
0.5
0.5
0.5
0.5
0.5
0.5
0.5
0.5
0.5
0.5
0.5
0.5
0.5
0.5
0.5
0.490688
0.490811
0.488546
0.489535
0.490525
0.490964
0.490842
0.4906
0.490769
0.05802
0.0605596
0.0891026
0.083643
0.0914591
0.0904097
0.106105
0.120203
0.0843849
0.110392
0.132732
0.0919276
0.107186
0.279565
0.132526
0.094931
0.230871
0.228487
0.19592
0.248278
0.0235233
0.022351
0.0499989
0.0155966
0.5
0.5
0.5
0.5
0.5
0.5
0.5
0.5
0.5
0.5
0.5
0.5
0.5
0.5
0.5
0.5
0.5
0.336076
0.344223
0.336745
0.406034
0.352463
0.339715
0.342359
0.391528
0.348891
0.400614
0.392033
0.495716
0.497144
0.496939
0.494771
0.497145
0.489547
0.489872
0.494877
0.497003
0.494988
0.497052
0.499588
0.499787
0.499504
0.499789
0.499802
0.499661
0.499616
0.49958
0.499536
0.499704
0.499719
0.499634
0.499814
0.499831
0.499776
0.371356
0.317978
0.298339
0.317595
0.275129
0.499959
0.499962
0.499882
0.499945
0.49974
0.499741
0.499938
0.5
0.5
0.5
0.5
0.5
0.5
0.5
0.5
0.5
0.5
0.5
0.5
0.5
0.5
0.5
0.5
0.5
0.5
0.5
0.5
0.5
0.5
0.5
0.5
0.5
0.5
0.5
0.5
0.5
0.5
0.5
0.5
0.5
0.5
0.5
0.5
0.5
0.5
0.5
0.5
0.5
0.5
0.5
0.5
0.5
0.5
0.5
0.5
0.5
0.5
0.5
0.5
0.5
0.499997
0.499964
0.499966
0.499964
0.499967
0.499998
0.499978
0.499991
0.499971
0.499997
0.49998
0.499977
0.499989
0.499977
0.499989
0.499997
0.499953
0.499404
0.499698
0.499735
0.499987
0.499986
0.499787
0.499758
0.499994
0.499994
0.499771
0.49997
0.499932
0.499953
0.499987
0.499994
0.5
0.5
0.5
0.5
0.5
0.5
0.5
0.5
0.5
0.5
0.5
0.5
0.5
0.5
0.5
0.5
0.5
0.5
0.5
0.5
0.5
0.5
0.5
0.5
0.5
0.5
0.5
0.5
0.5
0.5
0.5
0.5
0.5
0.5
0.5
0.5
0.5
0.5
0.5
0.5
0.5
0.5
0.5
0.5
0.5
0.5
0.5
0.5
0.5
0.5
0.5
0.5
0.5
0.5
0.5
0.5
0.5
0.5
0.5
0.5
0.5
0.5
0.5
0.5
0.5
0.5
0.5
0.5
0.481471
0.482385
0.483616
0.481546
0.47974
0.480984
0.472799
0.472682
0.480085
0.482411
0.483814
0.481642
0.469689
0.473492
0.474461
0.474835
0.474172
0.474597
0.497101
0.498303
0.498446
0.4992
0.497993
0.499165
0.497066
0.498171
0.498248
0.499151
0.498948
0.498104
0.499039
0.497019
0.492297
0.492853
0.491467
0.493878
0.491508
0.491333
0.49007
0.492865
0.493428
0.490647
0.490758
0.490237
0.492698
0.494754
0.494792
0.490672
0.494142
0.491488
0.5
0.5
0.5
0.5
0.5
0.5
0.5
0.5
0.5
0.5
0.5
0.5
0.490881
0.494976
0.490186
0.494717
0.490381
0.492615
0.490999
0.491227
0.492029
0.496194
0.496883
0.496554
0.495541
0.495547
0.496868
0.495693
0.497897
0.497383
0.497775
0.497517
0.495828
0.494579
0.490959
0.495943
0.496058
0.497501
0.497682
0.496953
0.491079
0.496766
0.495749
0.495711
0.5
0.5
0.5
0.5
0.5
0.5
0.5
0.5
0.5
0.5
0.5
0.5
0.5
0.5
0.5
0.5
0.5
0.5
0.5
0.497524
0.497396
0.498141
0.496714
0.497754
0.496969
0.497744
0.49866
0.497479
0.49905
0.497084
0.498179
0.498212
0.498298
0.480972
0.480393
0.488045
0.483515
0.483908
0.488036
0.493744
0.491881
0.490003
0.496714
0.495487
0.488505
0.496095
0.49443
0.494728
0.496504
0.49582
0.495375
0.499967
0.499939
0.499931
0.499989
0.499987
0.499948
0.499972
0.499989
0.499987
0.49994
0.499955
0.416528
0.417351
0.42459
0.423272
0.403294
0.38764
0.388543
0.371991
0.420488
0.423671
0.420551
0.393538
0.391404
0.395238
0.388991
0.390358
0.376689
0.426875
0.418298
0.423906
0.416743
0.499952
0.499955
0.499996
0.499987
0.499996
0.499956
0.499953
0.5
0.5
0.499998
0.499994
0.499999
0.5
0.499998
0.5
0.5
0.5
0.496759
0.496311
0.495253
0.493711
0.496629
0.496255
0.494004
0.493907
0.49555
0.493736
0.494338
0.457488
0.456932
0.456892
0.410283
0.445997
0.381437
0.364968
0.404795
0.435749
0.44317
0.373639
0.391738
0.386649
0.499799
0.499794
0.499883
0.499888
0.499716
0.499738
0.499665
0.49965
0.499925
0.49991
0.499768
0.49979
0.499937
0.499686
0.499944
0.499905
0.499796
0.499839
0.499915
0.499936
0.499922
0.499784
0.499612
0.499829
0.499331
0.499835
0.499868
0.499286
0.499248
0.499833
0.499535
0.499235
0.499612
0.499648
0.498786
0.4998
0.499523
0.498511
0.499087
0.499718
0.499864
0.49983
0.49941
0.498544
0.497272
0.497566
0.499449
0.49876
0.497455
0.497064
0.49925
0.499278
0.499333
0.499436
0.499409
0.498773
0.499311
0.499198
0.499319
0.498788
0.497179
0.497481
0.497876
0.497323
0.492921
0.493164
0.497812
0.49742
0.497276
0.496568
0.497475
0.497292
0.496353
0.493379
0.492782
0.49396
0.496675
0.497195
0.497652
0.493984
0.495217
0.498213
0.498203
0.498719
0.498849
0.498957
0.499005
0.49925
0.499038
0.499041
0.49884
0.498898
0.499192
0.49866
0.498536
0.5
0.5
0.5
0.5
0.5
0.5
0.5
0.5
0.5
0.5
0.499733
0.499737
0.499809
0.499835
0.499361
0.49914
0.499808
0.499873
0.499286
0.499775
0.499623
0.499628
0.499806
0.499041
0.499808
0.499617
0.49895
0.497666
0.497738
0.496877
0.494918
0.494605
0.496335
0.496829
0.496739
0.4957
0.49511
0.49714
0.497212
0.497949
0.497705
0.495816
0.494608
0.493706
0.496779
0.497523
0.496599
0.5
0.5
0.5
0.5
0.5
0.5
0.5
0.5
0.5
0.5
0.5
0.5
0.5
0.5
0.5
0.5
0.392646
0.3907
0.390375
0.393591
0.444091
0.424391
0.459879
0.432057
0.412395
0.423328
0.459595
0.430728
0.417815
0.49441
0.494069
0.494988
0.49617
0.497062
0.496158
0.494124
0.495897
0.496715
0.496244
0.497836
0.496149
0.5
0.5
0.5
0.5
0.5
0.5
0.5
0.5
0.5
0.5
0.5
0.5
0.5
0.5
0.5
0.5
0.5
0.5
0.5
0.492779
0.492347
0.495334
0.495288
0.495278
0.495624
0.494772
0.493579
0.495655
0.497941
0.497963
0.493965
0.498062
0.497328
0.497517
0.498501
0.498717
0.497426
0.49835
0.293022
0.316369
0.351603
0.321292
0.315512
0.332988
0.331619
0.349616
0.360684
0.361833
0.394308
0.3919
0.376641
0.378191
0.388532
0.351687
0.5
0.5
0.5
0.5
0.5
0.5
0.5
0.5
0.5
0.5
0.5
0.5
0.5
0.5
0.5
0.5
0.465232
0.436652
0.471795
0.441398
0.465529
0.421779
0.490573
0.476088
0.493255
0.493295
0.490634
0.475107
0.438349
0.41157
0.465796
0.490576
0.490363
0.490639
0.475279
0.428669
0.5
0.5
0.5
0.5
0.5
0.5
0.5
0.5
0.5
0.5
0.5
0.5
0.5
0.5
0.5
0.5
0.5
0.5
0.5
0.5
0.5
0.5
0.5
0.499998
0.499995
0.499995
0.5
0.499994
0.499994
0.499997
0.499995
0.499998
0.499997
0.499997
0.499997
0.499998
0.5
0.499997
0.499999
0.499998
0.5
0.499998
0.499999
0.499999
0.499999
0.499986
0.499985
0.499979
0.499981
0.499996
0.499996
0.499971
0.499972
0.499985
0.499982
0.499995
0.499977
0.49998
0.499994
0.499987
0.499995
0.499995
0.499994
0.499994
0.499518
0.497948
0.498297
0.499558
0.499386
0.498169
0.498163
0.499055
0.498776
0.498536
0.499583
0.499602
0.499005
0.499135
0.498984
0.499167
0.499976
0.499952
0.499952
0.499935
0.49998
0.499973
0.499934
0.499953
0.49998
0.5
0.5
0.5
0.5
0.5
0.5
0.5
0.5
0.5
0.5
0.5
0.5
0.5
0.5
0.5
0.5
0.5
0.5
0.5
0.5
0.5
0.5
0.5
0.5
0.5
0.5
0.5
0.5
0.5
0.5
0.5
0.5
0.499995
0.499999
0.499999
0.499997
0.499998
0.499997
0.499999
0.499999
0.499999
0.499995
0.499997
0.499998
0.499999
0.499998
0.499999
0.499997
0.499999
0.499995
0.499997
0.499999
0.499999
0.499999
0.499996
0.499988
0.499991
0.499998
0.499998
0.499997
0.499998
0.499991
0.49999
0.499993
0.499986
0.499986
0.499995
0.499994
0.499993
0.499643
0.499726
0.499557
0.499597
0.49938
0.499378
0.499199
0.499399
0.499385
0.499329
0.498042
0.498181
0.498246
0.49842
0.499415
0.498474
0.387886
0.393078
0.38621
0.405486
0.360629
0.373988
0.405127
0.351712
0.301317
0.5
0.5
0.499999
0.499992
0.499999
0.5
0.5
0.5
0.499992
0.499994
0.499998
0.499993
0.499982
0.499988
0.499959
0.499982
0.499956
0.499988
0.499989
0.499987
0.499952
0.499957
0.49996
0.499991
0.499961
0.499986
0.499988
0.499991
0.5
0.5
0.5
0.5
0.5
0.5
0.5
0.5
0.5
0.5
0.5
0.5
0.5
0.5
0.5
0.5
0.5
0.5
0.5
0.5
0.5
0.5
0.5
0.5
0.5
0.5
0.5
0.5
0.499999
0.499999
0.499999
0.499999
0.499999
0.499998
0.5
0.5
0.499998
0.499998
0.499998
0.5
0.5
0.499999
0.499999
0.499999
0.5
0.5
0.5
0.5
0.5
0.5
0.5
0.5
0.5
0.5
0.5
0.5
0.5
0.5
0.5
0.5
0.5
0.5
0.5
0.5
0.5
0.5
0.5
0.5
0.5
0.5
0.5
0.5
0.5
0.5
0.5
0.5
0.5
0.5
0.5
0.5
0.499802
0.499806
0.499781
0.499796
0.499686
0.499782
0.499809
0.499836
0.499804
0.499711
0.499788
0.499842
0.499877
0.499849
0.49988
0.499866
0.499838
0.499867
0.499894
0.499999
0.499999
0.499999
0.5
0.495501
0.494969
0.499973
0.499938
0.499999
0.499999
0.49999
0.499998
0.5
0.49618
0.492516
0.498727
0.499997
0.499995
0.499997
0.499991
0.496431
0.497324
0.494423
0.497426
0.496162
0.495257
0.495019
0.490859
0.497023
0.496926
0.494756
0.49695
0.492163
0.493357
0.491147
0.496915
0.496605
0.497051
0.493771
0.274148
0.319567
0.336142
0.339387
0.316422
0.26957
0.29738
0.323306
0.324853
0.312136
0.316278
0.343768
0.339803
0.319829
0.335064
0.342363
0.5
0.5
0.5
0.5
0.5
0.5
0.5
0.5
0.5
0.5
0.5
0.5
0.5
0.5
0.5
0.5
0.5
0.5
0.5
0.5
0.5
0.5
0.5
0.5
0.5
0.5
0.5
0.5
0.5
0.5
0.5
0.5
0.5
0.5
0.5
0.5
0.5
0.5
0.5
0.5
0.5
0.5
0.5
0.5
0.5
0.5
0.5
0.5
0.5
0.5
0.5
0.5
0.5
0.5
0.5
0.5
0.5
0.5
0.5
0.5
0.5
0.5
0.5
0.5
0.499999
0.499999
0.499999
0.499999
0.499999
0.5
0.5
0.5
0.5
0.5
0.5
0.5
0.5
0.5
0.5
0.5
0.5
0.5
0.5
0.5
0.5
0.5
0.5
0.5
0.5
0.5
0.5
0.5
0.5
0.5
0.5
0.5
0.5
0.5
0.5
0.5
0.5
0.5
0.5
0.5
0.5
0.5
0.5
0.5
0.5
0.5
0.5
0.5
0.5
0.5
0.5
0.5
0.5
0.5
0.5
0.5
0.5
0.5
0.5
0.5
0.5
0.5
0.5
0.5
0.5
0.5
0.5
0.5
0.5
0.5
0.5
0.5
0.5
0.5
0.5
0.5
0.5
0.5
0.5
0.5
0.5
0.5
0.5
0.5
0.5
0.5
0.5
0.5
0.5
0.5
0.5
0.5
0.5
0.5
0.5
0.5
0.5
0.5
0.5
0.5
0.5
0.5
0.5
0.5
0.5
0.5
0.5
0.5
0.5
0.5
0.5
0.5
0.5
0.5
0.5
0.5
0.5
0.5
0.5
0.5
0.5
0.5
0.5
0.5
0.5
0.5
0.499999
0.5
0.499992
0.499982
0.499999
0.499989
0.499991
0.499996
0.499992
0.49999
0.499998
0.320854
0.321458
0.324954
0.313419
0.5
0.5
0.5
0.5
0.5
0.5
0.5
0.5
0.5
0.5
0.5
0.5
0.5
0.5
0.5
0.5
0.5
0.5
0.5
0.5
0.5
0.5
0.479556
0.488767
0.487404
0.479087
0.479002
0.490073
0.490219
0.487995
0.472927
0.485134
0.477732
0.478695
0.465389
0.4704
0.483534
0.485241
0.499999
0.499999
0.499999
0.499999
0.499995
0.499996
0.499998
0.499998
0.499999
0.499998
0.499998
0.5
0.499998
0.499999
0.499996
0.499998
0.5
0.499999
0.499999
0.5
0.499999
0.499999
0.5
0.5
0.5
0.5
0.5
0.5
0.5
0.5
0.5
0.5
0.5
0.5
0.5
0.5
0.5
0.5
0.5
0.5
0.5
0.448244
0.446925
0.445091
0.46108
0.447102
0.446232
0.463036
0.449023
0.448522
0.460543
0.446358
0.432397
0.430636
0.432176
0.430793
0.444338
0.457773
0.45814
0.450953
0.452463
0.457724
0.440823
0.5
0.5
0.5
0.5
0.5
0.5
0.5
0.5
0.5
0.5
0.5
0.5
0.5
0.5
0.5
0.5
0.5
0.5
0.5
0.5
0.5
0.5
0.5
0.5
0.5
0.5
0.5
0.5
0.5
0.5
0.5
0.5
0.5
0.5
0.5
0.5
0.5
0.5
0.5
0.5
0.5
0.5
0.5
0.5
0.5
0.5
0.5
0.5
0.5
0.5
0.464527
0.457863
0.46646
0.457691
0.463158
0.475654
0.471224
0.477481
0.475232
0.482361
0.488336
0.488552
0.474861
0.483935
0.489167
0.482222
0.481135
0.496607
0.496169
0.498909
0.498948
0.49902
0.499033
0.496616
0.496751
0.497228
0.497191
0.498702
0.498765
0.497539
0.498987
0.49813
0.498502
0.498739
0.498774
0.498456
0.499071
0.499057
0.498689
0.489592
0.490782
0.492131
0.491408
0.492348
0.495563
0.496396
0.492588
0.491965
0.497918
0.497837
0.496386
0.495031
0.49769
0.498038
0.497495
0.496371
0.498022
0.430557
0.447624
0.456507
0.44879
0.460469
0.449229
0.429241
0.443915
0.446746
0.440875
0.454957
0.455646
0.448161
0.455319
0.419993
0.44482
0.441374
0.5
0.5
0.5
0.5
0.5
0.5
0.5
0.5
0.5
0.5
0.498036
0.499192
0.496864
0.496945
0.499772
0.499228
0.497628
0.497443
0.497412
0.497704
0.498295
0.499345
0.497754
0.499828
0.499621
0.498452
0.499369
0.499441
0.499999
0.5
0.499999
0.5
0.5
0.5
0.5
0.5
0.5
0.5
0.5
0.5
0.5
0.498876
0.498837
0.498648
0.498636
0.497515
0.498167
0.49814
0.498309
0.494685
0.494726
0.496493
0.496605
0.49734
0.496523
0.499543
0.499893
0.498921
0.499687
0.499933
0.499691
0.499191
0.499537
0.499842
0.499654
0.499844
0.499543
0.499476
0.499856
0.499208
0.101277
0.11714
0.100085
0.0970624
0.139126
0.12185
0.219841
0.222972
0.0980147
0.0893456
0.178622
0.196885
0.170862
0.171983
0.155944
0.212479
0.194119
0.16934
0.5
0.5
0.5
0.5
0.5
0.5
0.5
0.5
0.5
0.5
0.5
0.5
0.5
0.5
0.5
0.5
0.5
0.5
0.5
0.5
0.5
0.5
0.5
0.5
0.5
0.5
0.5
0.5
0.5
0.5
0.5
0.5
0.226918
0.216314
0.191647
0.196751
0.222311
0.209938
0.187041
0.193504
0.204095
0.200125
0.200199
0.194543
0.171328
0.186149
0.185559
0.170772
0.168491
0.217855
0.5
0.5
0.5
0.5
0.5
0.5
0.5
0.5
0.5
0.5
0.5
0.5
0.5
0.5
0.5
0.5
0.5
0.5
0.5
0.499724
0.499714
0.49983
0.499803
0.499392
0.499368
0.499252
0.499081
0.499188
0.499222
0.49955
0.49961
0.499719
0.499648
0.499179
0.499134
0.499244
0.499478
0.5
0.5
0.5
0.5
0.5
0.5
0.5
0.5
0.5
0.5
0.5
0.5
0.5
0.5
0.5
0.5
0.5
0.5
0.5
0.5
0.5
0.5
0.5
0.5
0.5
0.5
0.5
0.5
0.5
0.5
0.5
0.5
0.5
0.5
0.5
0.5
0.5
0.5
0.5
0.5
0.5
0.5
0.5
0.5
0.5
0.5
0.5
0.5
0.5
0.5
0.5
0.5
0.5
0.5
0.5
0.5
0.5
0.5
0.5
0.5
0.5
0.5
0.5
0.5
0.5
0.5
0.5
0.5
0.5
0.5
0.5
0.5
0.5
0.5
0.5
0.5
0.5
0.5
0.5
0.5
0.499886
0.499879
0.499896
0.499967
0.499958
0.499937
0.499894
0.499937
0.49992
0.499949
0.499973
0.4999
0.49995
0.499959
0.499934
0.499839
0.499824
0.499791
0.499901
0.499835
0.499856
0.499826
0.49978
0.499861
0.499746
0.499882
0.499766
0.499832
0.499964
0.499977
0.499974
0.499935
0.499878
0.5
0.5
0.5
0.5
0.5
0.5
0.5
0.5
0.5
0.5
0.5
0.5
0.5
0.5
0.5
0.491143
0.492276
0.49302
0.493117
0.490475
0.492747
0.489085
0.487022
0.488493
0.5
0.5
0.5
0.5
0.5
0.5
0.5
0.5
0.5
0.5
0.5
0.5
0.5
0.5
0.5
0.5
0.5
0.5
0.5
0.5
0.5
0.5
0.5
0.5
0.5
0.5
0.5
0.5
0.5
0.5
0.5
0.5
0.5
0.5
0.5
0.5
0.5
0.5
0.5
0.5
0.5
0.5
0.5
0.5
0.5
0.5
0.5
0.5
0.5
0.5
0.5
0.5
0.5
0.5
0.5
0.5
0.5
0.5
0.5
0.5
0.5
0.5
0.5
0.5
0.5
0.5
0.5
0.5
0.499098
0.499018
0.498833
0.498955
0.499661
0.499435
0.499676
0.499678
0.498839
0.499793
0.499372
0.499152
0.49928
0.499907
0.499939
0.499419
0.499756
0.499684
0.499881
0.499939
0.499943
0.499932
0.499929
0.499425
0.499934
0.499718
0.499997
0.499997
0.499996
0.499996
0.499999
0.499999
0.5
0.499993
0.499993
0.499993
0.499993
0.499996
0.499994
0.499998
0.499998
0.499996
0.499996
0.499996
0.5
0.5
0.5
0.5
0.5
0.5
0.5
0.5
0.5
0.5
0.5
0.5
0.5
0.5
0.5
0.5
0.5
0.5
0.5
0.5
0.5
0.5
0.5
0.5
0.5
0.5
0.49225
0.494247
0.493433
0.492276
0.49291
0.493466
0.492678
0.492485
0.49227
0.491772
0.491825
0.492445
0.491673
0.498414
0.499489
0.499605
0.49941
0.499267
0.498417
0.498215
0.498501
0.499579
0.499338
0.499264
0.499167
0.499393
0.499341
0.499278
0.499586
0.499855
0.499783
0.49929
0.499436
0.499863
0.499874
0.499883
0.499877
0.49989
0.499759
0.49978
0.499108
0.499679
0.499772
0.499581
0.499968
0.499986
0.499955
0.499978
0.499972
0.499992
0.499969
0.499928
0.499971
0.499989
0.49998
0.499969
0.499973
0.499929
0.4187
0.419249
0.438199
0.444853
0.424682
0.424673
0.41123
0.410378
0.42163
0.420226
0.408313
0.5
0.5
0.5
0.5
0.5
0.5
0.5
0.5
0.5
0.5
0.5
0.5
0.5
0.5
0.5
0.5
0.5
0.5
0.5
0.5
0.5
0.5
0.5
0.5
0.5
0.5
0.5
0.5
0.5
0.5
0.5
0.5
0.5
0.5
0.5
0.5
0.5
0.5
0.5
0.5
0.5
0.5
0.5
0.5
0.5
0.5
0.5
0.5
0.5
0.5
0.5
0.5
0.5
0.5
0.5
0.5
0.5
0.5
0.5
0.5
0.5
0.5
0.5
0.5
0.5
0.5
0.5
0.5
0.5
0.5
0.5
0.5
0.5
0.5
0.5
0.5
0.5
0.5
0.5
0.5
0.5
0.5
0.5
0.5
0.5
0.5
0.5
0.5
0.5
0.5
0.5
0.5
0.5
0.5
0.5
0.5
0.5
0.5
0.5
0.499831
0.499841
0.49982
0.499822
0.499935
0.499896
0.499927
0.499857
0.499987
0.499986
0.499959
0.499986
0.499974
0.499956
0.499987
0.499987
0.499935
0.499958
0.493505
0.485
0.492809
0.491846
0.492961
0.48776
0.496134
0.496638
0.487797
0.496349
0.490033
0.483663
0.490198
0.490266
0.490812
0.493073
0.496648
0.492986
0.490657
0.496536
0.485233
0.490743
0.49475
0.496584
0.492319
0.486348
0.486295
0.499616
0.499534
0.499568
0.499684
0.499404
0.489648
0.48617
0.489308
0.495972
0.481931
0.497695
0.48639
0.42162
0.435418
0.470085
0.432116
0.416553
0.479296
0.450565
0.497024
0.402601
0.408947
0.451856
0.435827
0.397933
0.463717
0.451689
0.398523
0.395316
0.457361
0.468493
0.420254
0.434117
0.465963
0.460626
0.416864
0.411679
0.440547
0.5
0.5
0.5
0.5
0.5
0.5
0.5
0.5
0.5
0.5
0.5
0.5
0.5
0.5
0.5
0.5
0.5
0.5
0.5
0.5
0.499882
0.499861
0.499923
0.499938
0.499936
0.499949
0.499933
0.499914
0.499852
0.49989
0.499937
0.49993
0.499929
0.499933
0.499948
0.5
0.499944
0.499932
0.5
0.499997
0.499878
0.499985
0.5
0.499956
0.499938
0.499878
0.5
0.499998
0.5
0.5
0.5
0.5
0.484549
0.473898
0.474983
0.450505
0.441114
0.464317
0.467216
0.49305
0.441596
0.465419
0.489816
0.487835
0.489883
0.487269
0.477321
0.49458
0.453389
0.466165
0.495282
0.487845
0.493579
0.496717
0.5
0.5
0.5
0.5
0.5
0.5
0.5
0.5
0.5
0.5
0.5
0.5
0.5
0.5
0.5
0.5
0.5
0.5
0.5
0.5
0.5
0.5
0.5
0.5
0.5
0.5
0.5
0.5
0.5
0.5
0.5
0.5
0.5
0.5
0.5
0.417071
0.386098
0.411487
0.371114
0.381571
0.385419
0.392286
0.421626
0.499999
0.499998
0.5
0.5
0.5
0.499999
0.499999
0.499997
0.5
0.499999
0.499997
0.499999
0.5
0.5
0.5
0.5
0.5
0.5
0.5
0.5
0.5
0.5
0.5
0.5
0.5
0.5
0.5
0.5
0.5
0.5
0.5
0.5
0.499999
0.499999
0.5
0.5
0.5
0.499998
0.499999
0.499998
0.499999
0.499999
0.5
0.499998
0.499999
0.499999
0.499998
0.499998
0.499371
0.499546
0.499637
0.49976
0.499539
0.499671
0.499721
0.499732
0.499763
0.499797
0.499427
0.49977
0.499807
0.499777
0.499206
0.499452
0.499687
0.499734
0.499754
0.49978
0.499232
0.49974
0.5
0.5
0.5
0.5
0.5
0.5
0.5
0.5
0.5
0.5
0.5
0.5
0.5
0.5
0.5
0.5
0.346338
0.35414
0.371457
0.369937
0.352077
0.36198
0.388793
0.393256
0.392871
0.388791
0.41004
0.407845
0.375396
0.38646
0.37997
0.397952
0.367083
0.359883
0.499708
0.495229
0.495769
0.498241
0.497859
0.497774
0.494091
0.494499
0.499733
0.499729
0.497895
0.497803
0.498754
0.499557
0.499513
0.499478
0.5
0.5
0.5
0.5
0.5
0.5
0.5
0.5
0.5
0.5
0.5
0.5
0.5
0.5
0.5
0.5
0.5
0.5
0.5
0.5
0.499997
0.499997
0.499986
0.49999
0.5
0.499999
0.5
0.499999
0.499995
0.499994
0.5
0.499999
0.499999
0.499999
0.5
0.5
0.498275
0.498233
0.498354
0.498125
0.499239
0.498246
0.499456
0.498256
0.499453
0.499793
0.499559
0.499705
0.499558
0.499464
0.499277
0.499476
0.499551
0.499035
0.499348
0.499768
0.499528
0.499635
0.499019
0.499298
0.49972
0.499764
0.499173
0.499431
0.499726
0.499994
0.499988
0.499964
0.499976
0.499976
0.49998
0.499981
0.499996
0.499988
0.499995
0.499994
0.499992
0.499984
0.499966
0.499967
0.499991
0.499984
0.499975
0.499783
0.499822
0.49991
0.499901
0.499794
0.499866
0.499766
0.499827
0.499837
0.5
0.5
0.499998
0.5
0.5
0.5
0.5
0.5
0.499996
0.499986
0.499986
0.5
0.5
0.5
0.5
0.5
0.5
0.5
0.5
0.5
0.5
0.5
0.5
0.5
0.5
0.5
0.5
0.5
0.5
0.5
0.5
0.5
0.5
0.5
0.5
0.5
0.5
0.5
0.5
0.5
0.5
0.5
0.5
0.5
0.5
0.5
0.5
0.5
0.5
0.5
0.5
0.499543
0.499523
0.499517
0.499553
0.499854
0.499855
0.49991
0.499923
0.49957
0.499835
0.499879
0.499856
0.499891
0.499834
0.499817
0.5
0.5
0.5
0.5
0.5
0.5
0.5
0.5
0.5
0.5
0.5
0.5
0.5
0.5
0.5
0.5
0.5
0.459834
0.460823
0.46701
0.4679
0.479846
0.47971
0.469306
0.466783
0.483787
0.485399
0.467794
0.480381
0.482076
0.477113
0.484213
0.482729
0.48162
0.48309
0.48488
0.486927
0.487298
0.48458
0.4923
0.491675
0.484936
0.48675
0.48595
0.482027
0.492811
0.492161
0.491473
0.490878
0.492742
0.488493
0.48343
0.483989
0.484089
0.5
0.5
0.499999
0.499999
0.5
0.5
0.5
0.5
0.5
0.499999
0.5
0.499999
0.5
0.5
0.5
0.5
0.499393
0.499222
0.499662
0.499467
0.499372
0.498832
0.498945
0.498883
0.499144
0.499387
0.499532
0.498938
0.4997
0.499628
0.498898
0.499431
0.499403
0.499453
0.5
0.5
0.5
0.5
0.5
0.5
0.5
0.5
0.5
0.5
0.5
0.5
0.5
0.5
0.5
0.5
0.5
0.5
0.5
0.5
0.5
0.5
0.5
0.5
0.5
0.5
0.5
0.5
0.5
0.5
0.5
0.5
0.5
0.5
0.5
0.5
0.5
0.5
0.5
0.5
0.5
0.5
0.5
0.5
0.5
0.5
0.5
0.499424
0.499479
0.499445
0.499526
0.497392
0.49791
0.498246
0.497253
0.49736
0.499211
0.498878
0.499426
0.49949
0.497708
0.498892
0.49903
0.497125
0.49715
0.495702
0.496234
0.496281
0.493763
0.493696
0.490149
0.490287
0.495205
0.49147
0.491361
0.490223
0.5
0.5
0.5
0.5
0.5
0.5
0.5
0.5
0.5
0.5
0.5
0.5
0.5
0.5
0.5
0.499792
0.49984
0.499922
0.499823
0.5
0.5
0.5
0.5
0.5
0.5
0.5
0.5
0.5
0.5
0.499963
0.5
0.5
0.5
0.5
0.5
0.5
0.5
0.5
0.5
0.5
0.5
0.5
0.5
0.5
0.5
0.5
0.5
0.499576
0.499534
0.499362
0.499371
0.499611
0.499679
0.499511
0.499303
0.499274
0.499435
0.49916
0.499001
0.499584
0.499248
0.498972
0.499259
0.499133
0.498821
0.447926
0.442263
0.431062
0.432869
0.447553
0.442211
0.447837
0.425802
0.430469
0.436357
0.430142
0.431852
0.447544
0.44441
0.442309
0.429866
0.419823
0.417555
0.410347
0.428623
0.499986
0.499979
0.499985
0.499982
0.499987
0.496609
0.49662
0.496347
0.496337
0.497833
0.497828
0.498183
0.498231
0.49526
0.495644
0.495832
0.49704
0.497963
0.497308
0.499227
0.499222
0.499775
0.499788
0.499233
0.499229
0.499762
0.499754
0.499788
0.499503
0.498362
0.5
0.5
0.5
0.5
0.5
0.5
0.5
0.5
0.5
0.5
0.5
0.499426
0.499269
0.499474
0.499494
0.499484
0.499446
0.499287
0.499596
0.499515
0.499439
0.499493
0.499392
0.499737
0.499727
0.499616
0.5
0.5
0.5
0.5
0.5
0.5
0.5
0.5
0.5
0.5
0.5
0.5
0.5
0.5
0.5
0.5
0.5
0.5
0.5
0.5
0.5
0.499896
0.499896
0.499914
0.499912
0.499928
0.499946
0.5
0.5
0.5
0.5
0.5
0.5
0.5
0.499983
0.5
0.499994
0.499984
0.5
0.5
0.5
0.5
0.5
0.5
0.5
0.5
0.5
0.5
0.5
0.5
0.5
0.5
0.5
0.5
0.5
0.5
0.5
0.5
0.5
0.5
0.5
0.5
0.5
0.5
0.5
0.5
0.5
0.5
0.5
0.5
0.5
0.5
0.499989
0.499995
0.499991
0.499995
0.499979
0.499976
0.499999
0.499976
0.499977
0.499998
0.499998
0.499978
0.499977
0.499998
0.5
0.5
0.5
0.5
0.5
0.5
0.5
0.5
0.5
0.5
0.5
0.495849
0.495295
0.492317
0.49746
0.495124
0.493788
0.494775
0.493522
0.492114
0.494962
0.495817
0.496812
0.496616
0.49737
0.496614
0.5
0.5
0.5
0.5
0.5
0.5
0.5
0.5
0.5
0.5
0.5
0.5
0.5
0.5
0.5
0.5
0.5
0.5
0.499867
0.499824
0.499902
0.4999
0.499914
0.499729
0.49964
0.499692
0.499911
0.499904
0.499822
0.499967
0.499948
0.499706
0.499787
0.49965
0.49967
0.499623
0.499965
0.499947
0.499963
0.5
0.5
0.5
0.5
0.5
0.5
0.5
0.5
0.5
0.5
0.5
0.5
0.5
0.5
0.5
0.5
0.5
0.5
0.5
0.5
0.5
0.5
0.5
0.5
0.5
0.5
0.5
0.5
0.5
0.5
0.5
0.5
0.5
0.5
0.5
0.5
0.5
0.5
0.5
0.5
0.362573
0.351492
0.377159
0.371266
0.342789
0.333396
0.329776
0.328324
0.327773
0.334527
0.294374
0.360522
0.311729
0.161031
0.242043
0.203872
0.332385
0.480726
0.477027
0.480209
0.482045
0.47405
0.462738
0.47436
0.465747
0.481585
0.471848
0.474807
0.460012
0.477465
0.467278
0.458215
0.5
0.5
0.5
0.5
0.5
0.5
0.5
0.5
0.5
0.5
0.5
0.5
0.5
0.5
0.5
0.5
0.5
0.5
0.5
0.5
0.5
0.5
0.5
0.5
0.5
0.5
0.5
0.5
0.5
0.5
0.5
0.5
0.5
0.5
0.5
0.5
0.5
0.5
0.5
0.5
0.5
0.5
0.5
0.5
0.499963
0.489559
0.488908
0.488673
0.499374
0.496956
0.499965
0.498472
0.499803
0.499968
0.499971
0.499965
0.499966
0.499968
0.499969
0.499931
0.499889
0.499889
0.499845
0.49985
0.499919
0.49992
0.499877
0.499961
0.499891
0.499894
0.499955
0.5
0.5
0.5
0.5
0.5
0.5
0.5
0.5
0.5
0.5
0.5
0.5
0.5
0.5
0.5
0.5
0.5
0.5
0.5
0.5
0.5
0.5
0.5
0.5
0.5
0.5
0.5
0.5
0.5
0.5
0.5
0.499991
0.499989
0.499983
0.499985
0.499983
0.499985
0.49999
0.499983
0.499987
0.499984
0.5
0.5
0.5
0.5
0.5
0.5
0.5
0.5
0.5
0.5
0.5
0.5
0.5
0.5
0.5
0.5
0.5
0.5
0.5
0.5
0.5
0.5
0.5
0.5
0.5
0.5
0.5
0.5
0.5
0.5
0.5
0.5
0.5
0.5
0.5
0.5
0.5
0.5
0.5
0.5
0.5
0.5
0.5
0.5
0.5
0.5
0.5
0.5
0.5
0.5
0.5
0.5
0.5
0.5
0.5
0.5
0.5
0.5
0.5
0.5
0.5
0.5
0.5
0.5
0.5
0.5
0.5
0.5
0.5
0.5
0.5
0.5
0.5
0.5
0.5
0.5
0.5
0.5
0.5
0.5
0.5
0.5
0.5
0.5
0.5
0.5
0.5
0.5
0.5
0.5
0.5
0.5
0.5
0.5
0.5
0.5
0.5
0.5
0.5
0.5
0.5
0.5
0.5
0.5
0.5
0.5
0.5
0.5
0.5
0.5
0.5
0.5
0.5
0.5
0.5
0.5
0.5
0.5
0.5
0.5
0.5
0.5
0.5
0.5
0.5
0.5
0.5
0.5
0.5
0.5
0.499996
0.499995
0.499988
0.499988
0.5
0.499995
0.5
0.499998
0.499996
0.5
0.5
0.5
0.5
0.5
0.5
0.5
0.5
0.5
0.5
0.5
0.5
0.5
0.5
0.5
0.5
0.5
0.5
0.5
0.5
0.5
0.5
0.5
0.5
0.5
0.5
0.5
0.5
0.5
0.5
0.5
0.5
0.5
0.5
0.5
0.5
0.5
0.5
0.5
0.5
0.5
0.5
0.5
0.5
0.5
0.5
0.5
0.5
0.5
0.5
0.5
0.5
0.5
0.5
0.5
0.5
0.5
0.5
0.5
0.5
0.5
0.5
0.5
0.5
0.5
0.5
0.5
0.5
0.5
0.5
0.5
0.5
0.5
0.5
0.5
0.5
0.5
0.5
0.5
0.5
0.5
0.5
0.5
0.5
0.5
0.5
0.5
0.5
0.5
0.5
0.5
0.5
0.5
0.5
0.5
0.5
0.5
0.5
0.5
0.5
0.5
0.5
0.5
0.5
0.5
0.5
0.5
0.5
0.5
0.5
0.5
0.5
0.5
0.5
0.5
0.5
0.5
0.498975
0.499095
0.49941
0.499538
0.499318
0.499787
0.499784
0.499554
0.499837
0.499795
0.499619
0.499613
0.499561
0.499359
0.499019
0.499227
0.499793
0.499449
0.499782
0.499779
0.499789
0.499378
0.499436
0.49909
0.499705
0.499754
0.499702
0.49976
0.499766
0.499713
0.499718
0.499778
0.499768
0.499749
0.499692
0.499726
0.49974
0.5
0.5
0.5
0.5
0.5
0.5
0.5
0.5
0.5
0.5
0.5
0.5
0.5
0.5
0.5
0.5
0.499992
0.499995
0.499995
0.499974
0.499987
0.499974
0.499986
0.499994
0.499994
0.499972
0.49997
0.499985
0.499969
0.499979
0.499999
0.5
0.499996
0.499997
0.499999
0.5
0.499999
0.5
0.499996
0.499997
0.5
0.5
0.5
0.499998
0.5
0.5
0.5
0.499995
0.499997
0.499996
0.499993
0.499992
0.499996
0.499996
0.499991
0.499991
0.499972
0.499981
0.499981
0.499978
0.499991
0.499989
0.499994
0.499994
0.499986
0.499992
0.499994
0.499991
0.499992
0.499992
0.5
0.5
0.5
0.5
0.5
0.5
0.5
0.5
0.5
0.5
0.5
0.5
0.5
0.5
0.5
0.5
0.5
0.5
0.5
0.5
0.5
0.5
0.5
0.5
0.5
0.5
0.5
0.5
0.5
0.5
0.5
0.5
0.5
0.5
0.5
0.5
0.5
0.39154
0.388205
0.393971
0.376652
0.373028
0.367735
0.356435
0.352737
0.348848
0.356112
0.368627
0.351074
0.454127
0.451006
0.485562
0.484739
0.430065
0.414645
0.491586
0.491261
0.491763
0.491869
0.4924
0.486005
0.487149
0.487443
0.271839
0.262666
0.245934
0.342971
0.407632
0.381181
0.415948
0.389508
0.420742
0.372149
0.348704
0.415161
0.377384
0.38336
0.374138
0.389063
0.412801
0.383878
0.0327965
0.0423483
0.0472644
0.0568248
0.0507418
0.0353677
0.0552243
0.0792924
0.0733237
0.0248447
0.0281539
0.0222587
0.0354352
0.0318164
0.0339769
0.0457374
0.0567584
0.030828
0.5
0.5
0.5
0.5
0.5
0.5
0.5
0.5
0.5
0.5
0.5
0.5
0.499999
0.5
0.499999
0.499999
0.499998
0.499998
0.499997
0.499998
0.499999
0.499998
0.5
0.5
0.499997
0.499998
0.5
0.499999
0.499999
0.499998
0.499998
0.499999
0.499996
0.499999
0.499999
0.499999
0.499996
0.499998
0.499995
0.499998
0.499999
0.499989
0.499989
0.499998
0.499991
0.499975
0.499984
0.499985
0.499981
0.499976
0.499996
0.499996
0.499991
0.499999
0.499993
0.499992
0.499997
0.499998
0.5
0.499999
0.499999
0.499997
0.499999
0.499999
0.499997
0.499998
0.499999
0.5
0.5
0.499999
0.5
0.5
0.5
0.28679
0.270961
0.280494
0.302338
0.285158
0.306691
0.341299
0.349441
0.308743
0.275268
0.341721
0.366218
0.412045
0.425197
0.471158
0.471404
0.429829
0.424349
0.405999
0.455509
0.454536
0.420568
0.403326
0.5
0.5
0.5
0.5
0.5
0.5
0.5
0.5
0.5
0.5
0.5
0.5
0.5
0.5
0.495376
0.490153
0.491323
0.488196
0.46964
0.478259
0.463243
0.488284
0.494657
0.496677
0.482424
0.4679
0.496709
0.486015
0.473484
0.483771
0.4771
0.477321
0.484205
0.493423
0.495759
0.486187
0.496142
0.497367
0.490506
0.490214
0.493863
0.496701
0.496557
0.494307
0.495292
0.495915
0.497091
0.496952
0.496663
0.497735
0.497448
0.496724
0.497429
0.496764
0.497602
0.498171
0.498482
0.498495
0.496908
0.498385
0.497372
0.497921
0.497252
0.49545
0.496613
0.496064
0.494434
0.490295
0.490258
0.494755
0.492141
0.492484
0.339731
0.339698
0.338147
0.267634
0.272757
0.319191
0.276908
0.285567
0.320759
0.330429
0.32
0.305956
0.496124
0.496335
0.495757
0.495757
0.494515
0.49612
0.49422
0.494459
0.493907
0.495349
0.494191
0.494187
0.493778
0.494459
0.493819
0.493769
0.499999
0.499999
0.5
0.499998
0.499999
0.499999
0.5
0.5
0.499999
0.499999
0.5
0.5
0.499999
0.5
0.5
0.499999
0.5
0.5
0.494684
0.494608
0.488681
0.324651
0.499288
0.498949
0.498808
0.426085
0.461933
0.421937
0.101385
0.499153
0.493609
0.499992
0.5
0.5
0.5
0.5
0.5
0.5
0.5
0.5
0.5
0.499958
0.5
0.494643
0.5
0.495455
0.499642
0.499546
0.493603
0.493866
0.498601
0.493883
0.493582
0.496757
0.14972
0.232271
0.413926
0.492037
0.496605
0.211709
0.312618
0.499531
0.499536
0.224961
0.276333
0.489676
0.467694
0.0133465
0.5
0.499655
0.5
0.499728
0.499809
0.0291817
0.5
0.135727
0.418906
0.499219
0.499975
0.499996
0.499996
0.499996
0.330044
0.346761
0.5
0.499997
0.34731
0.5
0.499997
0.315268
0.499985
0.499974
0.5
0.17316
0.499979
0.5
0.146916
0.5
0.48343
0.5
0.5
0.5
0.5
0.5
0.5
0.493131
0.499991
0.499992
0.5
0.499959
0.5
0.499995
0.5
0.5
0.5
0.499955
0.5
0.5
0.471341
0.489048
0.5
0.5
0.5
0.499267
0.5
0.361251
0.499977
0.499959
0.477927
0.3532
0.5
0.499915
0.478721
0.347425
0.499881
0.5
0.5
0.479326
0.5
0.499867
0.499805
0.381722
0.499999
0.499997
0.5
0.499999
0.405659
0.5
0.499652
0.32898
0.5
0.5
0.5
0.5
0.5
0.5
0.5
0.499385
0.5
0.49879
0.5
0.5
0.5
0.499017
0.5
0.5
0.498998
0.5
0.498898
0.5
0.5
0.498836
0.499908
0.5
0.499999
0.5
0.5
0.5
0.5
0.5
0.5
0.5
0.5
0.5
0.5
0.5
0.5
0.5
0.5
0.5
0.5
0.5
0.5
0.5
0.5
0.5
0.5
0.5
0.5
0.5
0.5
0.5
0.5
0.5
0.5
0.5
0.5
0.5
0.5
0.5
0.5
0.5
0.5
0.5
0.5
0.5
0.5
0.5
0.5
0.5
0.5
0.5
0.5
0.5
0.5
0.5
0.5
0.5
0.5
0.5
0.5
0.5
0.5
0.5
0.5
0.5
0.5
0.5
0.5
0.5
0.5
0.5
0.5
0.5
0.5
0.5
0.5
0.5
0.499999
0.5
0.5
0.5
0.5
0.5
0.5
0.5
0.5
0.5
0.5
0.5
0.5
0.5
0.5
0.5
0.5
0.5
0.5
0.5