/*--------------------------------*- C++ -*----------------------------------*\
  =========                 |
  \\      /  F ield         | OpenFOAM: The Open Source CFD Toolbox
   \\    /   O peration     | Website:  https://openfoam.org
    \\  /    A nd           | Version:  10
     \\/     M anipulation  |
\*---------------------------------------------------------------------------*/
FoamFile
{
    format      ascii;
    class       volScalarField;
    location    "13";
    object      eff_dif;
}
// * * * * * * * * * * * * * * * * * * * * * * * * * * * * * * * * * * * * * //

dimensions      [0 2 -1 0 0 0 0];

internalField   nonuniform List<scalar> 
75457
(
-0.0335619
-0.0304587
-0.0263228
-0.02412
-0.0196608
-0.02077
-0.0294607
-0.0289859
-0.0188263
-0.0134708
-0.0173649
-0.0188099
-0.0181167
-0.0159361
-0.0036773
-0.00415338
-0.00391854
-0.0040323
-0.00451791
-0.00404691
-0.00349076
-0.00421823
-0.0042144
-0.00454109
-0.0043244
-0.00465806
-0.00432396
-0.000966961
-0.00104161
-0.000664551
-0.000310883
-0.000593617
-0.000691108
-0.000740287
-0.000163736
-0.00107806
-0.00096984
-0.00129621
-0.00134534
-0.000415551
-0.000596287
-0.000397372
-0.000832536
-0.011521
-0.0116239
-0.0106204
-0.0106945
-0.01114
-0.00564567
-0.00624251
-0.00661982
-0.00598611
-0.00606232
-0.00622784
-0.00660658
-0.00670889
-0.00644346
-0.00668711
-0.00600137
-0.00625997
-0.00610054
-0.00594609
0.0309308
0.0311926
0.0309325
0.0312585
0.031486
0.0315134
0.0311725
0.0312106
0.0314718
0.0312627
0.0310056
0.0312519
0.0312415
0.0309313
0.0311312
-0.00731883
-0.00846309
-0.00703141
-0.00839
-0.0103135
-0.0050887
-0.00539582
-0.00739943
-0.00812048
-0.00802477
-0.00800535
-0.00538738
-0.00607064
-0.00527156
-0.00518182
-0.00588138
-0.00531504
-0.00694276
-0.00710101
-0.00713227
-0.00748056
-0.00707837
-0.00690439
-0.0080943
-0.00731607
0.0314474
0.0313364
0.0315986
0.0316147
0.031481
0.0313313
0.0312506
0.0317023
0.0317041
0.0313181
0.031328
0.022017
0.0226809
0.0251515
0.0247239
0.0220803
0.0236643
0.0236974
0.0231641
0.0235226
0.0252178
0.0250015
0.0255453
0.0260862
0.0248364
0.0242726
0.023072
0.025499
0.0244922
0.0135349
0.0134972
0.012916
0.0138097
0.0134009
0.0149328
0.0146179
0.0145038
0.0144943
0.00763937
0.00718042
0.00774623
0.00729428
0.00672816
0.00723802
0.00725861
0.00631555
-0.00725512
-0.00729414
-0.00669257
-0.0068928
-0.00727556
-0.00693686
-0.00664862
-0.00616763
-0.00464076
-0.00468333
-0.00620648
-0.00593235
-0.00546976
-0.00617251
-0.0050577
0.0161254
0.0177315
0.0179747
0.0173109
0.0177327
0.014006
0.0153955
0.0169613
0.015965
0.0169313
0.0142484
0.0129277
0.0135233
-0.00957368
-0.0100384
-0.00991311
-0.0101094
-0.00988701
-0.0100164
-0.00934316
-0.0100295
-0.00987968
-0.0101125
-0.0100963
-0.00993144
-0.00985294
-0.00998686
-0.00880142
-0.00746114
-0.0099388
-0.00733397
-0.00767956
-0.00926625
0.0122729
0.0130701
0.011751
0.0124752
0.0107014
0.0115192
0.0138294
0.0135626
0.0126416
0.00991465
0.00990125
-0.00767706
-0.00752382
-0.00792938
-0.0078873
-0.00783757
-0.00776894
-0.00760602
-0.00746539
-0.00706663
-0.0079059
-0.00765704
-0.0074362
-0.00779339
-0.00739302
0.00614018
0.00518668
0.00559433
0.00387266
0.00443738
0.00521438
0.00515176
0.00638767
0.00596039
0.00499808
0.00439254
0.00371663
0.00599457
0.00442758
-0.0070696
-0.00714369
-0.00683982
-0.00679684
-0.00710597
-0.00704006
-0.00714565
-0.00710475
-0.00729827
-0.00679476
-0.00705049
-0.00652679
-0.00716511
-0.00725878
-0.00699679
-0.00694549
-0.00711472
-0.0103158
-0.00996755
-0.0100149
-0.00985696
-0.0111178
-0.00956657
-0.00954686
-0.00893542
-0.00983033
-0.0102522
-0.00943077
-0.00995406
-0.0126826
-0.0126606
-0.0125941
-0.0126808
-0.0124572
-0.0129356
-0.0132421
-0.0128754
-0.0127496
-0.0132448
-0.0126572
-0.012517
-0.0127309
-0.0053989
-0.0051259
-0.00545126
-0.00482213
-0.00485212
-0.00472583
-0.00451816
-0.00445501
-0.00442655
-0.00497368
-0.00528731
-0.00517193
-0.00434718
-0.00482536
-0.00471776
-0.00041718
-0.000403364
-0.000223002
-0.000390234
-0.000191741
-0.000289952
-0.000588745
-0.000619734
-0.00016029
-8.53259e-05
0.000312389
-3.46248e-06
-0.000168323
0.000191469
0.000746581
0.000267708
-8.05747e-05
0.000403767
9.57181e-05
8.82728e-05
-7.11847e-05
-0.000114083
-0.00451324
-0.00525737
-0.00334768
-0.00383258
-0.00426555
-0.00453306
-0.00451254
-0.00461438
-0.00466832
-0.0038488
-0.00443513
-0.00832468
-0.00848003
-0.00866187
-0.00867668
-0.00859273
-0.00827589
-0.0083482
-0.00877336
-0.00898134
-0.00871904
-0.00897133
-0.008095
-0.00839824
-0.00853836
-0.00869955
-0.00844671
-0.00859408
-0.0163601
-0.0151151
-0.0148296
-0.0163093
-0.0192704
-0.0191495
-0.0186302
-0.0178712
-0.0178672
-0.0172435
-0.0187562
-0.00387878
-0.00436373
-0.00507767
-0.00492618
-0.00453774
-0.0047593
-0.00422021
-0.00497876
-0.00504632
-0.00451484
-0.00444279
-0.000212003
-0.00012939
-0.000341957
-0.000422554
-0.000142144
-0.000119449
-0.000419717
-0.000152145
-0.000451902
-0.000578371
-0.000538168
-0.000230329
-0.000452663
-0.000910493
-0.000776174
-0.0053411
-0.00429749
-0.00661392
-0.00540906
-0.00529221
-0.00734279
-0.00772153
-0.00735936
-0.00770521
-0.00770023
-0.00733812
-0.00816902
0.0496277
0.0544157
0.0430647
0.0456795
0.0484898
0.0505684
0.0502025
0.0530383
0.0457065
0.0501017
0.0483138
0.0493353
0.0454929
0.0499388
0.0441686
0.0456957
0.0475967
0.0426324
0.034454
0.0340078
0.0347985
0.0355363
0.0364399
0.0374221
0.0346711
0.035284
0.037782
0.041272
0.0380089
0.0381843
0.0398618
0.0258048
0.0230333
0.0204436
0.0220793
0.0267191
0.0234137
0.0219668
0.0233622
0.0229875
0.0210981
0.0283961
0.0283559
0.0214166
0.0229701
0.0204564
0.0266951
0.028791
0.0288206
0.0248004
0.0247929
0.0254589
0.0267947
-0.00909363
-0.00945948
-0.00972112
-0.00970068
-0.00982372
-0.00923542
-0.00930085
-0.00946056
-0.00952964
-0.00919498
-0.00965505
-0.00921422
-0.00939972
-0.00929056
-0.00949866
-0.00946567
-0.0232333
-0.0264339
-0.0134197
-0.0213596
-0.0120486
-0.0188511
-0.0161348
-0.0133626
-0.0122825
-0.0170352
-0.0307582
-0.0258682
-0.0165235
-0.023491
-0.0120306
-0.014344
0.00188041
0.00172693
0.00189745
0.00273338
0.00309753
0.00370157
0.00153446
0.0012103
0.00285852
0.00282996
0.00371016
0.0033627
0.00309259
0.00301733
0.00285662
0.00220706
0.00147543
0.00227746
0.0335839
0.0375729
0.0361226
0.0327682
0.0340816
0.0368237
0.0403828
0.0394834
0.0343084
0.0403154
0.0419905
0.0402662
0.0363708
0.0331587
0.0339573
0.0350262
0.0267058
0.0260526
0.0265551
0.026327
0.0254762
0.0272696
0.0278454
0.027225
0.0265934
0.0275306
0.0269712
0.0261516
0.0270091
0.0254266
0.0261129
0.027644
0.0281226
0.0120412
0.0118929
0.0116151
0.0119848
0.0119729
0.0120265
0.012094
0.0121802
0.0122184
0.012064
0.0117078
0.0117735
0.0122822
0.0119251
0.0120392
0.0113255
0.0113254
-0.00388831
-0.00486026
-0.00636028
-0.0054272
-0.0044589
-0.00450516
-0.00411707
-0.00408552
-0.00490439
-0.00451138
-0.00610513
-0.0062196
-0.00498095
-0.0031481
-0.00562502
-0.0047926
-0.00469366
-0.00549377
-0.00361102
-0.003678
-0.00360054
-0.00352365
-0.00288002
-0.0033455
-0.0034216
-0.00348056
-0.00302187
-0.00320873
-0.00329663
-0.00293717
-0.00292399
-0.00315709
-0.00555776
-0.00525039
-0.00611722
-0.00704298
-0.00702141
-0.00637119
-0.00595661
-0.00592667
-0.00583637
-0.00674032
-0.0068666
-0.00657129
-0.0062938
-0.00580649
-0.00611627
-0.0067446
-0.00705134
-0.00713536
0.0211341
0.0168789
0.0177048
0.0244317
0.0207349
0.0148651
0.0178251
0.0179204
0.0143971
0.0227774
0.0179717
0.0150486
-0.00906178
-0.0088375
-0.00868996
-0.00859155
-0.00893374
-0.00867351
-0.00763274
-0.00803894
-0.00882322
-0.00885936
-0.0087798
-0.00799658
-0.00810857
-0.00853911
-0.00871808
-0.00850692
-0.00483376
-0.00527791
-0.00444832
-0.0047262
-0.00561137
-0.0054894
-0.00537628
-0.00431935
-0.0042395
-0.00432672
-0.00431132
-0.00522639
-0.00542026
-0.00447419
-0.00410046
-0.00502145
0.00440727
0.00364809
0.00298032
0.00616346
0.00704889
0.00465759
0.00535926
0.00213238
0.00370322
0.00437405
0.00595983
0.00489565
0.00595162
0.00675052
0.00647971
0.00343392
0.00352745
0.00481553
0.00290965
-0.00209868
-0.00110728
-0.00213335
-0.0034865
-0.00260328
-0.00159278
-0.0033358
-0.00290708
-0.00215473
-0.00257662
-0.00203091
-0.00346297
-0.00230918
-0.00191202
-0.00140931
-0.00116136
-0.00112897
-0.00179466
-0.00147131
-0.00143883
-0.00134272
-0.00130016
-0.00171711
-0.00115491
-0.00164474
-0.00120159
-0.00197187
-0.000989824
-0.000961846
-0.00116072
-0.00105733
-0.00132605
-0.00413724
-0.00474613
-0.00383844
-0.00247791
-0.00293895
-0.00657674
-0.00406548
-0.00377708
-0.00376926
-0.00488778
-0.00631422
-0.00654134
-0.00682845
-0.00683351
-0.0066748
-0.00784033
-0.00840313
-0.00792889
-0.00886346
-0.00611312
-0.00596945
-0.00803391
-0.00932124
-0.00901683
-0.00816329
-0.00803576
-0.00919724
-0.0080824
-0.00762521
-0.00829442
-0.0083715
-0.00705964
-0.0101096
-0.0101166
-0.00985296
-0.0100137
-0.00982607
-0.00996441
-0.0100601
-0.00976663
-0.00960801
-0.00977676
-0.00994492
-0.00974474
-0.00979615
-0.00977767
-0.00983789
-0.00973769
-0.00980553
-0.00668297
-0.00702111
-0.00815407
-0.00793037
-0.00716071
-0.00764317
-0.00789162
-0.00785112
-0.00744162
-0.00784309
-0.00717077
-0.00386371
-0.00434652
-0.00294015
-0.00246375
-0.00261352
-0.00233046
-0.00275067
-0.00135299
-0.00257386
-0.00259344
-0.00265288
-0.00261012
-0.00185314
-0.00255383
-0.00236747
-0.00236939
-0.00266328
-0.00257663
-0.00201841
-0.00249049
-0.00226062
-0.0026838
-0.00265164
-0.0021984
-0.00222897
-0.00239387
-0.00204559
-0.00237461
-0.00221699
-0.00199828
-0.00224417
-0.00196755
-0.00219843
-0.0023159
-0.00203119
-0.00569202
-0.00591314
-0.00583271
-0.00575486
-0.00532491
-0.00476824
-0.0057399
-0.00454327
-0.00530061
-0.00403564
-0.00481145
-0.00522074
-0.00550752
-0.00499099
-0.0047934
-0.00620394
-0.00513364
-0.00459424
-0.00440596
-0.00432401
-0.00728399
-0.00747165
-0.00762001
-0.00756549
-0.00681419
-0.00695435
-0.00749329
-0.00753191
-0.00741232
-0.00632802
-0.00665618
-0.00662793
-0.00634156
-0.00691531
-0.00680488
-0.0070812
-0.00620713
-0.00643425
-0.00699038
-0.00703401
-0.00634109
-0.00649461
-0.00558827
-0.00669012
-0.00616485
-0.00677021
-0.0063366
-0.00736824
-0.0057661
-0.00562224
-0.00565729
-0.00623406
-0.00657341
-0.00615956
-0.00692779
-0.00618164
-0.00597885
-0.00617991
-0.00602653
-0.00722159
-0.00677903
-0.00807615
-0.00754384
-0.00835518
-0.00909994
-0.00869424
-0.00855851
-0.00806478
-0.00807289
-0.00893658
-0.00892746
-0.00933476
-0.00831008
0.0221876
0.0226972
0.0236564
0.0226766
0.0234803
0.022189
0.0232279
0.0220744
0.0226608
0.0236566
-0.00938586
-0.00915125
-0.00878338
-0.00883234
-0.00941934
-0.0094311
-0.00890994
-0.00911822
-0.00936442
-0.00877117
-0.00921343
-0.00906147
-0.00906371
-0.00939955
-0.00911194
-0.00939175
-0.00942352
-0.00940269
-0.0088566
-0.00970389
-0.00946601
-0.00911001
-0.00979039
-0.00868551
-0.00950211
-0.00859969
-0.00841598
-0.00945688
-0.00966733
-0.00858251
-0.00956184
-0.00967219
-0.00909035
-0.00875775
-0.00974145
-0.00910171
-0.00907096
0.0114902
0.0118913
0.0125942
0.0120162
0.0116872
0.0128195
0.00939463
0.0109779
0.0112033
0.0108616
0.010152
0.0122515
0.0117315
0.0122673
0.0113832
0.0109446
-0.0146099
-0.0156023
-0.0145979
-0.0139919
-0.0140913
-0.0119074
-0.0124735
-0.0130823
-0.0141581
-0.0146454
-0.0107259
-0.0123945
-0.0134128
-0.0110093
-0.0120322
-0.0102282
-0.00995937
-0.00995812
-0.0109259
-0.0110654
-0.0117558
-0.010167
-0.00973008
-0.00946535
-0.0106368
0.0122278
0.0112192
0.0108499
0.0109172
0.0109901
0.00948088
0.00914947
0.00855861
0.00860246
0.00917338
0.00931231
0.00838669
0.0101981
0.00927519
0.0109956
0.0110999
0.00911583
0.010248
0.00986359
-0.00939543
-0.00944692
-0.00986874
-0.00938796
-0.0107519
-0.00961349
-0.00921405
-0.00979921
-0.00979318
-0.0093433
-0.00921879
-0.00994046
-0.010111
-0.010583
-0.0101102
-0.00938378
-0.00929319
-0.0101933
-0.00996479
-0.00552891
-0.00678687
-0.00615611
-0.0058445
-0.00573721
-0.00614107
-0.00567973
-0.00514546
-0.00628521
-0.00607512
-0.00612873
-0.00569123
-0.00635747
-0.00609327
-0.00645979
-0.00646579
0.0215986
0.022172
0.0215151
0.0213015
0.0225898
0.0234572
0.0231706
0.0222801
0.0223288
0.0231594
0.023325
0.0224117
0.0232244
0.0237825
0.0244379
0.0238901
-0.0121479
-0.014114
-0.0103457
-0.0103292
-0.0152477
-0.0180911
-0.0071797
-0.00831917
-0.0109474
-0.0135289
-0.0103483
-0.0110476
-0.0126999
-0.0178896
-0.0161272
-0.00878062
-0.0137504
-0.0107253
-0.014222
-0.0166777
0.0579927
0.0520459
0.0476978
0.0473612
0.0564701
0.057772
0.0512818
0.0560882
0.0502695
0.0522626
0.0498438
0.0502763
0.0471022
0.0469677
0.0526834
0.0203897
0.019071
0.0237136
0.02537
0.0232118
0.0201505
0.0255233
0.0220794
0.0245328
0.027792
0.0267214
0.0279599
0.0296897
0.0274885
-0.0143542
-0.0150976
-0.0146463
-0.0154011
-0.0135044
-0.013778
-0.012174
-0.0110438
-0.0133695
-0.0133092
-0.0115152
-0.011051
-0.0137829
-0.0120866
-0.011771
-0.0123824
-0.00508667
-0.00479244
-0.00484703
-0.00501279
-0.00480125
-0.00511186
-0.00472452
-0.00507582
-0.00526441
-0.00460072
-0.00466496
-0.00460217
-0.00518378
-0.00502471
-0.00468508
-0.00489144
-0.0048312
-0.00516284
-0.0049651
-0.0102851
-0.0103444
-0.00989967
-0.0106168
-0.0107685
-0.01064
-0.0100342
-0.0106934
-0.0106233
-0.0092272
-0.00978485
-0.00956069
-0.0101361
-0.00981815
-0.0108943
-0.0105715
-0.00914479
-0.0095595
-0.0092767
-0.00936878
-0.00905496
-0.00911476
-0.0095473
-0.00899794
-0.00916997
0.0303914
0.0295691
0.0296343
0.030073
0.0302441
0.0298595
0.0296447
0.0296759
0.0303842
0.0301846
0.0302413
0.0299943
0.0300665
0.0298475
0.0301614
0.0302251
0.0302554
0.0300505
0.029702
0.0303195
-0.00671782
-0.00752454
-0.00665681
-0.00717249
-0.00666022
-0.00633605
-0.00648979
-0.00726269
-0.00627469
-0.00658432
-0.00678305
-0.00696506
-0.00409576
-0.0041796
-0.00378468
-0.00363805
-0.00346073
-0.00416353
-0.00417397
-0.004304
-0.00406427
-0.00362708
-0.00361964
-0.00393005
-0.0039677
-0.00361929
-0.0037589
-0.00370733
-0.00387974
-0.0037286
-0.00312063
-0.00295077
-0.00324168
-0.00295255
-0.00309145
-0.00348044
-0.00354204
-0.0036768
-0.00371651
-0.00301852
-0.00344397
-0.00313778
-0.0037702
-0.00365605
-0.00327376
-0.00310619
-0.00377919
-0.00349412
-0.00305341
-0.00229201
-0.00241823
-0.00255398
-0.00189118
-0.00223167
-0.00198203
-0.00193012
-0.00265384
-0.00230841
-0.00275561
-0.00269044
-0.00196658
-0.00199389
-0.00211839
-0.00278992
-0.00271348
-0.0061783
-0.00607672
-0.00626513
-0.00623745
-0.0063465
-0.0059369
-0.00586653
-0.00685084
-0.0066865
-0.00956807
-0.00931247
-0.00938917
-0.00953572
-0.00957405
-0.00961422
-0.00946702
-0.00975863
-0.00947375
-0.00931345
-0.00959336
-0.0094106
-0.00391086
-0.0037602
-0.00389709
-0.00391248
-0.00384053
-0.00404697
-0.00398521
-0.00416977
-0.00415519
-0.00396247
-0.00441572
-0.00436705
-0.00430416
-0.00441199
-0.00424591
-0.00440696
0.030851
0.031065
0.0307825
0.0305239
0.0301817
0.0302669
0.0297815
0.0297239
0.0299928
0.0305231
-0.00831776
-0.0080847
-0.00833792
-0.00810523
-0.00839981
-0.00829506
-0.00857768
-0.00854923
-0.00866443
-0.00870465
-0.00840139
-0.00824489
-0.00844813
-0.00885102
-0.00874837
-0.00851611
-0.00844428
-0.00843968
-0.00491847
-0.00522055
-0.00483347
-0.00490942
-0.00486033
-0.00483785
-0.00507543
-0.00486695
-0.00500606
-0.00543009
-0.00517845
-0.00525319
-0.00501954
-0.00520009
-0.00477985
-0.00488276
-0.00508877
-0.0048829
0.00858032
0.00796208
0.00736412
0.00835056
0.0065157
0.00594123
0.00899015
0.00845452
0.00713077
0.00866398
0.00767602
0.00675643
0.00753684
0.00757399
0.0306455
0.0305428
0.0304249
0.0302502
0.0306978
0.0302941
0.0301136
0.0301478
0.0304536
0.0302714
0.0304395
0.0305639
0.0301407
0.0301063
0.0299952
0.0300378
0.0304153
0.0302109
0.0303552
0.0301243
0.0431558
0.0418029
0.0349491
0.0380438
0.0275865
0.0319276
0.0174397
0.0331795
0.0331259
0.0304887
0.036232
0.0264023
0.0380652
0.0432307
0.0390327
0.0465427
0.0281169
0.0393827
0.0348868
-0.00855874
-0.00893324
-0.00553823
-0.00405234
-0.010089
-0.0118677
-0.0114173
-0.0134713
-0.00515259
-0.00516825
-0.0153382
-0.0120712
-0.00708245
-0.0115294
-0.0124955
-0.00798752
-0.00823944
-0.012648
-0.0100594
-0.00968519
-0.000760535
-0.00134274
-0.00127756
-0.00126327
-0.00161175
-0.000838354
-0.00205325
-0.00132816
-0.0014233
-0.00146584
-0.00144942
-0.00134194
-0.00202506
-0.00104897
-0.00205043
-0.00210952
-0.0018155
-0.00186253
-0.000999071
-0.0175198
-0.0176856
-0.0184543
-0.0178974
-0.018127
-0.018916
-0.0164106
-0.0173486
-0.0181577
-0.0154959
-0.0170132
-0.0166032
-0.017074
-0.0176968
-0.0173584
-0.0177695
0.0322773
0.032228
0.0320949
0.0321714
0.0324443
0.0324616
0.0323385
0.0323674
0.0321776
0.0320416
0.0325617
0.0323378
0.032502
0.0324967
0.0321207
0.0320435
0.0322115
0.0323824
0.0325134
0.0321083
-0.000110851
-0.000258707
0.000301818
0.000719188
-0.00219945
-0.00227922
-0.00270755
-0.00355961
-0.00147902
-9.53838e-05
0.000278249
-0.00219736
-0.00254053
-0.00306281
-0.00379112
-0.00367623
-0.00137248
-0.00317863
-0.00293352
-0.00187893
0.0324788
0.0323747
0.0324582
0.0325011
0.0324904
0.0325041
0.0324263
0.0325597
0.0326222
0.0326269
0.0326928
0.0324055
0.0325753
0.032538
0.0326512
0.032633
0.0325213
-0.00561828
-0.00553205
-0.00565345
-0.00589254
-0.0058281
-0.0055239
-0.00534091
-0.00571434
-0.00578248
-0.00604164
-0.00537616
-0.00496987
0.030602
0.0304161
0.0309627
0.0309642
0.0307235
0.030666
0.0303335
0.0305469
0.0307626
0.0309291
0.0309684
0.0305985
0.0304435
0.0305601
0.0303561
0.030559
0.0303576
0.0306194
0.030686
0.0303461
0.0305878
0.0242405
0.0238027
0.0238999
0.0243152
0.0243473
0.0235098
0.0238931
0.025534
0.0257008
0.0254858
0.0248015
0.0244378
0.0240785
0.0240199
0.02404
0.0247337
0.0246167
0.024628
0.00924921
0.00951114
0.00959044
0.00917072
0.00943668
0.0101427
0.00978067
0.00981784
0.00956816
0.0107287
0.0105535
0.0108021
0.0106336
0.00970202
0.00942886
0.0504822
0.0454101
0.0395776
0.0409955
0.0473334
0.0454414
0.0569109
0.0422697
0.0491198
0.0440163
0.0564677
0.0562786
0.0519977
0.0452506
-0.00123698
-0.000898263
-0.00152418
-0.00213784
-0.00191246
-0.00228622
-0.00128624
-0.00137647
-0.00173474
-0.00138915
-0.00225609
-0.0017718
-0.00143573
-0.000925901
-0.00115188
-0.00170088
0.0261075
0.0240529
0.025693
0.0238935
0.023557
0.023947
0.0242671
0.0243206
0.0251765
0.0255783
0.0280363
0.0275269
0.0265438
0.0288628
0.0294483
0.0268654
0.0278955
0.0317779
0.0317411
0.0313414
0.0314386
0.031544
0.0315925
0.031813
0.0318489
0.0313097
0.031425
0.0317597
0.0317895
0.0317441
0.0316257
0.0315809
0.0317472
0.0315553
-0.0104582
-0.00831023
-0.00832118
-0.0114272
-0.00746374
-0.012349
-0.0176165
-0.00749772
-0.0099844
-0.0108423
-0.0100346
-0.00957494
-0.0103606
-0.0079618
-0.017167
-0.0171235
-0.0143319
-0.0152481
0.0190006
0.0186583
0.0202548
0.0199253
0.0192345
0.0179268
0.0183374
0.0198784
0.02035
0.0199572
0.0197153
0.0200153
0.0183532
0.0181036
0.0174643
0.0192441
0.0181361
0.0187563
0.017715
0.0192185
0.0185206
0.0182869
-0.00406133
-0.00456068
-0.00434257
-0.00411379
-0.00331913
-0.00348077
-0.00225215
-0.00250376
-0.00331634
-0.0042285
-0.0038798
-0.00350637
-0.00254506
-0.002398
-0.00251073
-0.00255746
-0.00447147
-0.00499784
-0.00430752
-0.00439878
-0.00481389
-0.00465532
-0.00441195
-0.00470656
-0.00501139
-0.0048326
-0.00488877
-0.00415527
-0.00420555
-0.00409467
-0.00427312
-0.00424624
-0.00497741
-0.0049584
-0.00486258
-0.00457988
-0.00422657
-0.00465601
-0.00466274
-0.0045316
-0.00458887
-0.00474353
-0.00496688
-0.00501249
-0.00452028
-0.00488305
-0.00450989
-0.00466436
-0.00440753
-0.00487795
-0.00409342
-0.00440479
-0.00420378
-0.00493466
-0.00455788
-0.0042138
-0.00492898
-0.00822926
-0.008806
-0.00867967
-0.0102096
-0.006976
-0.00588356
-0.00926747
-0.0089783
-0.00431374
-0.00498386
-0.00259337
-0.00566167
-0.00335516
-0.00602765
-0.00554818
-0.00743334
-0.00722994
-0.00571021
-0.00519213
-0.00187407
-0.00406003
-0.00238535
0.00734176
0.00570132
0.00503406
0.00552857
0.00614585
0.00773244
0.00761756
0.00653569
0.00581584
0.004962
0.00537722
0.00553971
0.00516089
0.006209
0.00607148
0.00713965
0.00592623
0.00518663
0.00585025
-0.00745698
-0.00702136
-0.00721593
-0.00726924
-0.00740186
-0.00743782
-0.00763114
-0.00793115
-0.00743411
-0.00801675
-0.0075243
-0.00734335
-0.00738631
-0.00731632
-0.00737878
-0.00733256
-0.00738114
-0.0042912
-0.00449048
-0.00598438
-0.00544987
-0.00523575
-0.00550223
-0.00574099
-0.00542151
-0.00482232
-0.00565064
-0.00501972
-0.00567409
-0.0053415
-0.0053956
-0.0039608
-0.00462467
-0.00468744
-0.00514703
-0.00428166
-0.00471057
-0.00379005
-0.0049285
-0.00477122
-0.00505281
-0.00515146
-0.00371403
-0.00450178
-0.00480701
-0.00472126
-0.00401144
-0.00485487
-0.000204486
-0.000476486
-0.000191186
-2.87545e-05
-0.000137064
-0.000225211
-0.000317925
-0.00035337
-6.1065e-06
-0.000193282
-0.000427274
-0.000369402
-0.000528442
-0.000562063
-0.000143923
-0.000288305
-0.000651936
-0.000554504
-0.000554485
-0.000530113
-0.000241139
-5.72123e-05
-0.000691659
-3.22009e-05
-0.000273208
-0.000232408
-0.000455169
-0.000621018
-0.00030336
-0.000407551
-0.000239183
-7.26056e-05
-6.85319e-05
-0.000290095
-0.000536762
-0.000271565
-0.000252415
-0.00059619
-6.90852e-05
-0.000289139
-0.0106423
-0.0119766
-0.015476
-0.0162117
-0.0162189
-0.0169544
-0.0114601
-0.0130107
-0.0137705
-0.00951844
-0.0115228
-0.0125811
-0.0151078
-0.0143809
-0.0138967
-0.0126924
-0.0122332
0.000474047
0.00048004
8.71787e-05
0.00136617
0.000724918
-0.000145144
-0.000409677
0.00142743
0.00114187
0.00019062
-0.0106308
-0.0107408
-0.0112206
-0.0114801
-0.0107055
-0.0107092
-0.0108135
-0.011421
-0.0113916
-0.0109633
-0.011069
-0.0108304
-0.0108516
-0.010268
-0.0102508
-0.0106291
-0.010607
-0.0106215
-0.00847772
-0.00842493
-0.00857686
-0.00817997
-0.00863689
-0.00829566
-0.00838118
-0.00826068
-0.0080002
-0.00807215
-0.00872933
-0.00881007
-0.00851646
-0.00063131
-0.000371731
-0.00075068
-0.000455266
-0.000908038
-0.00111206
-0.000804823
-0.000239088
-0.000143953
-0.000651135
-0.00096478
-0.000783239
-0.000202448
-0.000149947
-0.0101425
-0.0100355
-0.0104692
-0.0101947
-0.0100067
-0.00994466
-0.0103158
-0.0102658
-0.0102273
-0.0101207
-0.0101419
-0.0104215
-0.0100984
-0.00983283
-0.0106314
-0.0193122
-0.0185036
-0.0180974
-0.0182518
-0.017154
-0.0168531
-0.0199804
-0.0196809
-0.0198034
-0.0201784
-0.0207461
-0.0209145
-0.0178737
-0.01776
-0.0185592
-0.0185118
-0.0186858
-0.0201471
0.0313244
0.0313204
0.0315782
0.0309214
0.0310366
0.0309981
0.0311067
0.0309263
0.031249
0.031226
-0.00773325
-0.00778943
-0.00778193
-0.00800716
-0.00770684
-0.0079931
-0.00767185
-0.00776372
-0.00756819
-0.00764537
-0.00768089
-0.0079215
-0.00799001
-0.00779359
-0.00802049
-0.00765689
-0.00778789
-0.00780712
-0.00760409
-0.0077707
-0.00782864
-0.00778761
-0.00350388
-0.00329171
-0.00336324
-0.00311605
-0.00320061
-0.00323042
-0.00277367
-0.00291996
-0.00272494
-0.00294348
-0.00265344
-0.00265554
-0.00254839
-0.00268207
-0.00252
-0.00251821
-0.00235188
-0.00279555
0.0329941
0.0339615
0.035233
0.0339279
0.032492
0.034979
0.0331623
0.0341082
0.0304151
0.032271
0.0338462
0.0310275
0.0313601
0.030118
0.0288362
0.0319412
0.0297422
0.0286119
0.029688
0.0332653
0.0311197
0.0301607
0.0275869
0.0328627
0.0336803
0.0350072
0.0344791
0.0389411
0.0381021
0.0353207
0.0379562
0.0311649
0.0304552
0.0387902
0.0398279
0.0363767
0.0391162
0.0323618
0.0324759
0.0325345
0.0323471
0.0324502
0.0323455
0.0325192
0.0324745
0.0323244
0.0324487
0.0322723
0.0323104
0.0325255
0.0324667
0.0324682
0.0325219
0.0318972
0.0277606
0.0273416
0.0297105
0.0308098
0.0326423
0.0305531
0.0306296
0.0269652
0.0262876
0.0310249
0.0288232
0.0304109
0.0276839
0.0297971
0.0275125
0.027258
0.0285989
0.0291825
0.0280086
0.0286925
0.0298442
0.0296915
0.028945
0.0282139
0.0298514
0.0302695
0.0297784
0.0243959
0.0239306
0.0261823
0.0275382
0.0156544
0.0146342
0.02475
0.0245773
0.0153862
0.0175991
0.0201735
0.0200547
0.0217955
0.0192806
0.0168
0.0147086
0.0301873
0.0293437
0.0297039
0.0302173
0.0294191
0.0307415
0.0303384
0.0295409
0.0295603
0.0324104
0.0319777
0.0316611
0.0311097
0.0299858
0.0311188
0.0305553
0.031619
0.0310049
0.0303464
0.031899
0.00992035
0.011765
0.00643196
0.00344199
0.00464146
0.00752519
0.0149192
0.00654018
0.0104245
0.0103799
0.00406012
0.00910746
0.00983115
0.00672047
0.00972527
0.0163975
0.0164549
0.0149069
0.0129012
0.0112445
0.0202836
0.0173904
0.0174245
0.0146023
0.0185639
0.0186851
0.0186859
0.0160058
0.0145707
0.0156373
0.0157613
0.0165347
0.0168893
0.0316958
0.0317386
0.0315573
0.0314514
0.0321055
0.032076
0.0316625
0.0315043
0.0322533
0.0322648
0.0317152
0.0319964
0.0322472
0.0322146
0.0321141
-0.00931558
-0.00911408
-0.00959955
-0.0095525
-0.0100113
-0.0089045
-0.00866186
-0.0105361
-0.0101754
0.0339359
0.033062
0.0320506
0.0319904
0.0327361
0.0321029
0.0343417
0.0318038
0.0355628
0.0341157
0.0319044
0.0337618
0.0344044
0.0347747
0.0352338
0.0310145
0.0313215
0.0331035
0.0352788
0.0339485
0.0315113
0.0323888
0.00617943
0.00688997
0.00617855
0.00431471
0.00532233
0.0062019
0.00301844
0.00427252
0.00458432
0.00244316
0.00365873
0.00174003
0.00249659
0.00138102
0.000927862
0.00180634
0.00303924
0.00459828
0.00061237
0.00349184
0.0304843
0.0287836
0.0335392
0.0289672
0.0308723
0.0372501
0.0344968
0.0306949
0.034421
0.0300761
0.0325427
0.0384242
0.036255
0.0369672
0.0403713
0.0336951
0.0329175
0.0312021
0.0356784
0.0296727
0.032861
0.0305522
0.0345016
0.0388937
0.0397906
0.03793
-0.00944408
-0.0103648
-0.0101868
-0.0095307
-0.00965137
-0.010467
-0.00977886
-0.00941927
-0.0110559
-0.00943861
-0.00978163
-0.0103951
-0.00979819
-0.00922186
-0.00914737
-0.00965678
-0.00963188
-0.0103696
-0.00954511
-0.00901865
-0.00898432
-0.00906872
-0.00909605
-0.00980676
-0.00923494
-0.00972355
-0.0054352
-0.00516176
-0.00588354
-0.00637624
-0.00532816
-0.00556376
-0.00525136
-0.00409046
-0.00601699
-0.00339417
-0.00597405
-0.00478783
-0.00431111
-0.00500938
-0.00596163
-0.00593398
-0.00535941
-0.00507073
0.0121821
0.0116638
0.00817655
0.0102367
0.00885353
0.00686531
0.00355787
0.00835922
0.00863338
0.00615744
0.00119893
0.00501949
0.00643802
0.0278032
0.0285899
0.0289331
0.0275594
0.0292225
0.0290015
0.0293857
0.0285158
0.02865
0.0276279
0.0278233
0.029713
0.029073
-0.0110916
-0.0109203
-0.0117313
-0.0111398
-0.011172
-0.0116842
-0.0128112
-0.0123353
-0.0137468
-0.0118951
-0.0120423
-0.0116234
-0.013014
-0.011302
-0.0100092
-0.0098203
-0.0102136
-0.0106029
-0.0109903
-0.0111306
-0.0113836
-0.0101444
-0.0103857
-0.0105806
-0.0103205
-0.0100747
-0.0103812
-0.0102419
-0.0100344
-0.00966644
-0.0100023
-0.0101525
-0.0103143
-0.00975279
-0.00953184
-0.00954043
-0.00945374
-0.00981228
-0.0100566
-0.0101682
-0.0103111
-0.00984005
-0.00973094
-0.00993854
-0.00800747
-0.0076696
-0.00769476
-0.00756087
-0.00761479
-0.00751497
-0.00752924
-0.0078693
-0.00760471
-0.00751018
-0.00769838
-0.00767234
-0.00765556
-0.00818887
-0.00357651
-0.00488911
-0.0048056
-0.00377045
-0.00448866
-0.00495638
-0.00549591
-0.00355335
-0.00360129
-0.00422456
-0.00408304
0.0252782
0.0268974
0.0259778
0.0271016
0.0263505
0.0272675
0.0263683
0.0256018
0.0266984
0.0258129
0.0272308
0.0249777
0.0265273
0.0352866
0.038148
0.040439
0.0487906
0.0465569
0.0350387
0.052139
0.0513464
0.0384352
0.0441514
0.0366492
0.038889
0.0470233
0.0509459
0.0537707
0.0421902
0.044043
0.040631
0.0504152
0.0483797
0.0465882
0.0435802
0.0361025
0.0360965
0.0360804
0.034783
0.034491
0.0332227
0.0336242
0.0341738
0.0334097
0.0324334
0.0325202
0.0221986
0.0215335
0.0212092
0.0208113
0.0233386
0.0228257
0.0210667
0.0225191
0.0216902
0.0207524
0.0199564
0.0202481
0.0220133
0.0234251
0.0236088
0.0207627
0.0202092
0.0225708
0.0196343
0.0338409
0.0341319
0.0340082
0.0340012
0.0347464
0.0345798
0.0343616
0.034183
0.0341809
0.0345843
0.0353465
0.0350428
0.0354799
-0.00629908
-0.00223777
0.00012268
-0.00374389
-0.00168019
0.0018356
0.00162834
0.0024422
0.00313696
-0.00145091
0.000886481
-0.00640277
-0.00963419
-0.00139972
0.00194347
-0.00441237
-0.00222694
-0.0101473
-0.00542645
-0.0109489
-0.00403421
-0.00897438
-0.00897172
-0.00882099
-0.00902405
-0.00873553
-0.00881045
-0.00899321
-0.00931855
-0.00877512
-0.00853777
-0.00915118
-0.00897281
-0.00876081
-0.00869304
-0.00872871
-0.00890009
-0.00863882
-0.00863643
-0.0114856
-0.0131475
-0.0102964
-0.0104986
-0.0100496
-0.0121433
-0.0109675
-0.0107246
-0.0105958
-0.0109156
-0.0125307
-0.0146826
-0.0126655
-0.0125625
-0.0106847
-0.00866197
-0.00993017
-0.00955613
-0.0091033
-0.0105397
-0.012778
-0.010044
-0.00828881
-0.00907342
-0.00862087
-0.0106982
-0.00941949
-0.00300914
-0.00331639
-0.00355981
-0.00352168
-0.00380265
-0.0123598
-0.0145529
-0.0130221
-0.014509
-0.0189673
-0.0123999
-0.0162643
-0.0196411
-0.0191857
-0.0235665
-0.0250855
-0.0213904
-0.0207644
-0.0216752
-0.0166374
-0.00107817
-0.00137728
-0.00124279
-0.002227
-0.00201357
-0.00189758
-0.00211909
-0.00164219
-0.00200958
-0.00154015
-0.000784249
-0.00201412
-0.00180247
-0.00135311
-0.000422809
-0.00117383
-0.00216951
-0.00157871
0.0185883
0.0166504
0.0127899
0.0197005
0.00718775
-0.0030866
0.018907
0.0093644
0.0178688
0.0119322
0.0134136
-0.0159006
-0.00770174
-0.0260136
0.0075911
0.00708538
0.00392662
-0.00527707
0.00131378
0.0060173
-0.0174678
-0.0170452
-0.0171293
-0.0156242
-0.01601
-0.0148795
-0.0147464
-0.0145536
-0.0159383
-0.0161674
-0.0141735
-0.0148357
-0.0153355
-0.0144315
-0.0111528
-0.00939731
-0.0102388
-0.0120416
-0.00751036
-0.00823728
-0.00972892
-0.0121103
-0.0095203
-0.00914411
-0.0120124
-0.0107425
-0.00674655
-0.00747097
-0.00668511
-0.00728959
-0.00735535
-0.0076606
-0.00526619
-0.00635635
-0.00546391
-0.00818603
-0.011675
-0.00685919
-0.0129951
-0.0113179
-0.0131155
-0.0125618
-0.00226219
-0.00299111
-0.00259866
-0.00471114
-0.0072244
-0.00787113
-0.00970859
-0.00985165
-0.00403194
-0.00718463
-0.00448723
-0.00468709
-0.00053717
-0.00216051
-0.00248915
-0.00228192
0.00131182
0.001031
6.28237e-05
0.00306317
0.00310676
-0.000476615
-0.00277714
1.1497e-05
0.00113097
0.00277781
0.00336315
-0.00119423
0.00117694
0.000899944
-0.000564589
0.000562668
0.0135053
0.0141311
0.0112038
0.0116373
0.0141861
0.0123532
0.0118558
0.0124618
0.0129608
0.0124643
0.0114063
0.012019
0.0121534
0.0112034
0.0140355