/*--------------------------------*- C++ -*----------------------------------*\
  =========                 |
  \\      /  F ield         | OpenFOAM: The Open Source CFD Toolbox
   \\    /   O peration     | Website:  https://openfoam.org
    \\  /    A nd           | Version:  10
     \\/     M anipulation  |
\*---------------------------------------------------------------------------*/
FoamFile
{
    format      ascii;
    class       volScalarField;
    location    "13";
    object      k;
}
// * * * * * * * * * * * * * * * * * * * * * * * * * * * * * * * * * * * * * //

dimensions      [0 2 -2 0 0 0 0];

internalField   nonuniform List<scalar> 
75457
(
1.92339
2.18564
1.32773
0.693267
1.43427
1.59099
1.71371
1.68773
0.50677
0.501684
0.460853
1.28109
1.09196
0.549368
0.0838354
0.0683611
0.0161112
0.0497586
0.058601
0.0108284
0.0284834
0.0191751
0.0782438
0.0798556
0.0478501
0.098448
0.101606
0.12909
0.108789
0.191163
0.113109
0.166393
0.160384
0.0620615
0.0519477
0.0756938
0.0623905
0.160668
0.145697
0.0643561
0.0670059
0.0604134
0.0698384
0.0678474
0.124918
0.0277805
0.0159019
0.0677424
0.609765
0.192883
0.383898
0.54644
1.26215
0.379772
0.225304
0.246482
0.99065
0.958527
0.818984
1.34175
1.11263
0.681572
0.452397
0.318042
0.056413
0.328398
0.086646
0.375034
0.483335
0.908613
0.463302
0.990224
0.362773
0.0288642
0.452388
0.129319
0.13742
2.62517
1.96268
1.44579
2.16581
1.97761
2.32315
1.63359
1.17444
1.16682
1.25165
1.38549
2.46512
1.78625
1.71283
1.42701
1.73665
1.39068
0.912471
0.334024
0.361783
0.397203
1.73456
0.842241
0.803091
1.24631
0.11391
0.0272693
0.0400999
0.0558437
0.187171
0.0405057
1.07735
0.311014
0.374953
0.776749
0.837779
0.698394
0.0722789
0.834129
1.2889
0.458484
0.44921
1.54334
0.0187801
0.0719656
0.0767418
0.185613
0.444397
0.270476
0.823765
0.44024
0.84546
0.0927358
0.169296
0.905285
0.275579
0.588752
0.519371
0.87105
0.361452
0.744386
0.712859
1.30898
0.134551
0.265341
0.460699
0.151268
0.188631
0.652541
0.588977
0.525991
1.22411
0.699008
1.82233
1.10855
0.281068
0.19818
0.610504
0.971585
0.664655
1.25293
0.414098
0.876574
1.33368
0.312783
0.995792
0.00522815
0.00544383
0.00562739
0.00546971
0.00558339
0.00503366
0.00501141
0.00520108
0.00556006
0.00511452
0.00532658
0.00517987
0.00505548
0.685989
0.729765
0.878914
1.11881
0.982523
1.18378
0.699696
0.912225
1.43383
0.527354
0.730167
0.856899
1.3535
2.81443
0.950256
0.577517
0.826403
0.920533
0.63279
1.35137
0.10659
0.247325
0.189342
0.140415
0.092146
0.567659
0.713525
0.737488
0.470267
0.518081
0.888861
1.52352
1.47871
1.48991
1.19463
1.19833
1.55871
1.71914
1.06664
1.02905
1.7805
1.14557
1.8885
1.85464
1.67805
0.911279
0.943738
1.29266
0.886235
0.954132
1.829
0.88666
0.835358
0.947553
0.232205
0.223156
1.25006
0.654496
0.871812
0.763605
1.13292
0.403481
0.435863
0.464641
0.473567
1.03139
1.20384
0.898865
1.22019
0.952234
0.726612
0.87505
1.13911
1.58156
1.08218
1.2357
0.695464
1.10571
0.718995
0.778722
0.40593
0.215108
0.324199
0.0419233
0.116192
0.139842
0.421688
0.351455
0.957217
1.65403
1.15615
2.16392
1.49914
1.46029
1.68556
1.40276
0.868423
0.904288
0.931383
0.82218
1.01678
0.891229
1.1885
0.852612
1.05953
1.02418
0.974172
0.919563
0.768828
0.844379
0.685201
0.274545
0.310867
0.493303
0.407754
0.468218
0.728319
1.01396
1.07244
1.31661
1.11273
0.928264
0.943499
1.14622
0.963614
0.460343
1.08044
0.465516
0.451215
0.470689
0.459129
0.450224
0.562742
0.666109
0.54834
0.704435
0.5482
0.678913
0.865326
1.18305
1.34708
0.880839
0.664024
1.23259
0.622661
0.578759
0.515006
0.446217
0.234005
0.514241
0.446703
0.46336
0.99774
1.11173
0.605619
0.565682
1.12078
1.29611
0.54479
0.568871
1.193
1.12006
1.88817
1.10343
1.08311
1.71047
0.805765
0.725164
0.864603
0.421966
0.805364
0.900357
1.02351
0.875555
0.838761
0.459075
0.649343
0.560264
1.10874
1.19726
1.30811
2.29127
0.871395
0.742124
1.39219
1.48765
1.47345
1.41314
0.36305
0.350213
0.427985
0.449962
0.676904
0.552801
1.10192
0.578528
0.625551
0.878173
1.52475
1.08461
0.983031
0.916465
0.99915
0.837008
0.766137
0.649588
0.884256
0.85347
1.24909
1.19899
0.87671
1.08229
0.342986
0.306177
0.782531
0.00400986
0.00416877
0.00375066
0.00373763
0.0042297
0.00444116
0.0039667
0.00426048
0.00416656
0.00527819
0.00378982
0.0037132
0.00367536
0.00368065
0.00377141
0.00382303
0.00367155
0.00369827
0.00391534
0.00393671
0.00380567
0.00357252
0.00353748
0.00351854
0.00390483
0.0038392
0.00373508
0.00353566
0.00347814
0.00368611
0.00373092
0.0038755
0.00390932
0.00369097
0.0037097
0.00382147
0.00378404
0.00374506
0.00378529
0.0038893
0.00388268
0.00373467
0.00381113
0.00376116
0.00376468
0.00372388
0.00378419
0.00388002
0.00400454
0.00375494
0.00386873
0.00387135
0.00380755
0.193314
0.07085
0.0744956
0.0679712
0.0719842
0.159807
0.0643145
0.0784219
0.0529296
0.187416
0.0528235
0.0530249
0.0567941
0.0607957
0.045883
0.162229
1.49245
0.940091
0.860762
0.946517
0.410756
0.426407
0.778047
0.745048
0.424079
0.414469
1.80553
1.49634
1.55433
0.96195
0.457613
0.0976484
0.0127701
0.0184789
0.0776012
0.0757825
0.0474211
0.01792
0.0173973
0.0173878
0.0219693
0.013546
0.0446736
0.0739648
0.0715175
0.0810031
0.249737
0.0909248
0.0560726
0.0552298
0.00399998
0.00405857
0.00406864
0.00399729
0.00392625
0.00413492
0.00414649
0.00379019
0.00393362
0.00410124
0.00411348
0.00439782
0.00414449
0.00397281
0.00396951
0.0040061
0.00491439
0.00469665
0.00497608
0.00472538
0.00453321
0.00502722
0.00542625
0.00511472
0.00496227
0.00511464
0.00505452
0.00487925
0.00511746
0.0048736
0.00496931
0.00539081
0.00541407
0.00445523
0.00475972
0.00454054
0.00474806
0.00467365
0.00456329
0.00352125
0.00708386
0.00428779
0.00453967
0.00400502
0.00449087
0.00429191
0.00444705
0.00423844
0.0042789
0.00356861
0.441165
0.377871
0.405913
0.478139
0.35042
0.502908
0.551221
0.600465
0.385778
0.390448
0.389896
0.494692
0.693578
0.46559
0.597091
0.379458
0.557535
0.598226
0.0486282
0.0520083
0.0623619
0.0822456
0.0307532
0.0969071
0.0540071
0.0564093
0.0597196
0.115808
0.0658703
0.0637795
0.0629774
0.0343195
0.115334
0.106479
0.161468
0.0943732
0.168386
0.166769
0.171728
0.112132
0.0997513
0.176251
0.177009
0.172304
0.110641
0.0766727
0.0770119
0.141873
0.0974675
0.134531
0.00391194
0.00393326
0.00396183
0.00439826
0.00466851
0.00395058
0.0038412
0.00432473
0.0041826
0.0042196
0.00364039
0.00462468
0.261121
0.161992
0.370861
0.125823
0.324366
0.243749
0.254551
0.268702
0.329351
0.0735304
0.0477543
0.057036
0.0537792
0.046359
0.0556993
0.0567489
0.0129321
0.0409868
0.010443
0.0344241
0.0939088
0.0794223
0.146838
0.0630027
0.0598552
0.0364486
0.0264236
0.0146478
0.106356
0.0285613
0.0386648
0.0388677
0.00548806
0.00146278
0.0410149
0.00869822
0.00164209
0.057149
0.0423083
0.0136946
0.001459
0.0019854
0.000610081
0.00202741
0.00308276
0.00275736
0.0051948
0.0567284
0.0508947
0.051392
0.0164186
0.129712
0.102623
0.0685571
0.181454
0.0974756
0.144185
0.112682
0.059463
0.0974906
0.0556164
0.161108
0.130568
0.109519
0.111673
0.311267
0.319723
0.269942
0.291897
0.280283
0.282943
0.2035
0.23488
0.298974
0.1889
0.196943
0.312947
0.222111
0.193203
0.216419
0.190636
0.193712
0.208475
0.202187
0.430019
0.48601
0.0242272
0.0875527
0.330385
0.172575
0.0369265
0.0717784
0.561002
0.370781
1.09414
1.12813
1.07895
1.0991
1.13919
1.1945
1.12761
1.1722
1.03936
1.03756
1.12963
1.29741
1.30127
1.21463
1.27404
1.24306
1.16508
1.03693
1.10942
1.07202
1.10861
0.0373832
0.0279848
0.0892449
0.0640628
0.0725968
0.03182
0.0551929
0.0554575
0.0543095
0.166314
0.213364
0.274178
0.0277979
0.211699
0.38277
0.161839
0.271671
0.0124123
0.063071
0.177875
0.393609
0.072249
0.0935126
0.33784
0.272909
0.102045
0.379775
0.13618
0.978814
0.987082
0.961241
1.21762
1.06471
1.31176
1.46339
1.35727
1.18885
1.12135
1.56787
1.33984
1.30976
0.0532888
0.0642396
0.0177555
0.022292
0.0196509
0.017629
0.0300416
0.0370015
0.115273
0.0412047
0.0704362
0.0782159
0.020545
0.0214589
0.0768123
0.0388769
0.0733912
0.0708313
0.0519557
0.0965381
0.116689
0.0434635
0.068074
0.0231293
0.103046
0.0309597
0.0243279
0.123423
0.114793
0.0190629
0.0745723
0.0936215
0.0730364
0.0678174
0.120411
0.0290963
0.0508068
0.17255
0.0978633
0.0415307
0.00568421
0.013255
0.112683
0.207627
0.070037
0.0732239
0.129975
0.180905
0.0700003
0.0759311
0.0949582
0.0546097
0.054176
0.112024
0.124369
0.176636
0.0593766
0.0602574
0.0839909
0.180004
0.0840348
0.0675268
0.102521
0.0686931
0.222802
0.245732
0.0207866
0.0338511
0.0458965
0.0614
0.0305674
0.0357976
0.0691104
0.19512
0.287328
0.209169
0.0448202
0.06591
0.0354746
0.143931
0.0913917
0.0356676
0.0317834
0.0251303
0.0279588
0.0309214
0.0239823
0.0206493
0.0236909
0.0229882
0.0299539
0.0308682
0.0194448
0.0300126
0.0311396
0.00382751
0.00375946
0.0039077
0.0039393
0.00394836
0.00385724
0.00402857
0.00391096
0.00422173
0.00433478
0.129197
0.0873039
0.139525
0.188211
0.0583334
0.0515827
0.175967
0.257879
0.0717537
0.150512
0.143657
0.146136
0.179585
0.0495317
0.171865
0.143168
0.032193
0.626887
0.682926
0.647066
1.08268
0.979232
0.775941
0.984816
0.918534
0.956637
1.03292
0.59239
0.590683
0.731928
0.655087
0.890777
0.928255
0.898024
0.620584
0.669468
0.696321
0.00246202
0.00369263
0.00365347
0.00220784
0.00481196
0.0284031
0.0327198
0.00535021
0.00374488
0.00340016
0.0310394
0.0389406
0.00196601
0.0176673
0.0238819
0.045461
1.80027
1.96408
2.344
2.32689
1.68273
2.08176
1.63455
2.14898
2.80803
2.47745
1.7795
1.76557
2.10339
0.0817264
0.120278
0.10112
0.0614177
0.0559314
0.0640989
0.109208
0.0921032
0.0711084
0.0665727
0.0422687
0.0698212
0.040569
0.116307
0.0938156
0.0540216
0.120985
0.108956
0.0492426
0.0448278
0.0436701
0.0529483
0.00144858
0.000289106
0.0025525
0.00161964
0.00131001
0.0258207
0.104628
0.00386467
0.0371188
0.211277
0.2307
0.122477
0.113445
0.139343
0.0356329
0.118346
0.159487
0.120864
0.0438354
0.0431797
0.110971
0.022609
0.0579685
0.0482677
0.040374
0.0412865
0.0606565
0.0373733
1.06299
1.04555
1.10526
1.07611
1.04144
0.990178
1.0227
0.984338
1.08807
1.0334
1.06019
1.04767
1.10041
1.10093
1.09642
1.07657
0.0716962
0.165699
0.13502
0.0755094
0.0109498
0.0190873
0.0266576
0.0117052
0.0107946
0.0102178
0.0875457
0.058924
0.0188322
0.000353184
0.0308448
0.0228138
1.19277
1.64828
1.16994
1.49221
1.33316
1.88683
0.485263
0.597414
0.458151
0.488752
0.502876
0.698963
1.38133
1.81135
1.25788
0.808384
1.016
1.02439
0.717715
1.65877
0.013357
0.00923621
0.00739572
0.00651103
0.00762
0.00592016
0.00657024
0.0067051
0.00663943
0.0148114
0.0165801
0.00886459
0.00872493
0.00588917
0.0156215
0.0637232
0.0745445
0.124966
0.170322
0.237539
0.237294
0.304791
0.120833
0.415683
0.550479
0.478192
0.234924
0.627806
0.642081
0.0245173
0.0440222
0.0185539
0.0224476
0.0195086
0.0310777
0.0112694
0.00675416
0.032532
0.00761786
0.0154567
0.00669009
0.0109726
0.00678089
0.00548903
0.0057921
0.0743645
0.0806242
0.0635487
0.0640349
0.223007
0.230244
0.0420599
0.120811
0.116549
0.051704
0.220233
0.175174
0.266164
0.165502
0.176827
0.238417
0.244344
0.283826
0.28539
0.0119154
0.049792
0.0216917
0.0252365
0.0134047
0.117278
0.032702
0.053968
0.0687201
0.0490798
0.0126491
0.0159187
0.0197951
0.015304
0.0751716
0.0592837
0.0470181
0.109307
0.0752612
0.0913902
0.0387419
0.0576658
0.115433
0.0718378
0.0626691
0.0159405
0.0119115
0.0105432
0.0780567
0.00456389
0.00649048
0.0255186
0.0229833
0.0125581
0.0110135
0.0261533
0.0290134
0.0133804
0.0249402
0.00909782
0.00730107
0.00733926
0.00812932
0.0309517
0.00853819
0.0231302
0.0207564
0.0165504
0.0312082
0.0244187
0.02503
0.0616354
0.023089
0.0653477
0.0719532
0.0560036
0.0395685
0.528032
1.14696
1.67021
0.885188
1.29125
0.64694
0.800321
1.21551
1.40809
0.474557
0.945758
1.1136
1.61596
0.637589
1.10067
0.30671
0.814345
0.457326
0.407549
0.734343
0.870737
0.668137
0.397929
0.357103
0.351355
1.23262
1.2478
1.24465
1.39359
0.34674
0.357921
0.343095
0.312193
0.338017
0.627486
0.647513
0.56582
0.0433912
0.0871073
0.0244897
0.0443549
0.0284444
0.0194671
0.0120488
0.0306466
0.017426
0.0157678
0.0148806
0.0145796
0.0150431
0.0162573
0.0160549
0.0124399
1.04334
1.08274
1.01958
1.0561
0.654808
0.750635
1.07333
0.671505
0.681376
0.862693
0.802352
0.92364
0.206438
1.19351
1.36687
0.983795
1.1462
0.29394
0.0720485
0.941502
0.0661292
0.977837
1.26324
0.39761
0.760271
0.293188
1.12827
1.45102
1.06473
0.124335
0.347478
0.43956
1.60226
0.358939
0.735153
0.821081
1.35047
0.383332
0.577765
0.56671
1.08149
0.318436
0.480885
1.54758
0.36072
0.722839
0.387141
0.940479
1.40141
0.757112
0.449168
1.1104
1.22605
0.371097
0.229076
0.87727
0.230585
0.8376
1.38647
0.831754
0.219343
0.263399
1.27732
0.842056
0.26968
0.237331
0.329218
0.253792
0.10904
0.171472
0.136206
0.267574
0.281335
0.0719244
0.086381
0.0911429
0.216657
0.32648
0.137498
0.16861
0.0873837
0.224481
0.242082
0.0837983
0.0789152
0.0446057
0.0375728
0.0412605
0.0469522
0.121251
0.0688219
0.0448291
0.0673256
0.0486291
0.415061
0.708239
0.282398
0.0108617
0.010461
0.0100498
0.0103652
0.0111688
0.00938087
0.0334563
0.0391577
0.0611878
0.0321143
0.00161211
0.0128966
0.0141338
0.00849295
0.0274758
0.0265502
0.078341
0.0303946
0.00657775
0.00738548
0.785211
0.785284
0.734308
0.644678
0.955396
0.938203
0.950207
0.78126
0.57992
0.707027
0.744889
0.754506
0.715801
0.740235
0.633645
0.710397
0.596579
0.57898
0.58418
0.0269258
0.013814
0.02117
0.0152168
0.598976
0.968964
0.248289
0.416179
0.0624084
0.0149437
0.406938
0.0766875
0.0303914
0.225532
0.705817
0.278523
0.141631
0.34029
0.143403
0.35476
0.124475
0.112738
0.210676
0.127009
0.20761
0.808426
1.02318
0.516463
0.527654
0.400722
0.300327
0.208406
0.34359
0.279983
0.61584
0.27499
0.17303
0.180537
0.269978
1.60625
1.77933
1.8318
1.97553
1.8374
1.94922
1.32165
1.47887
1.39385
1.19566
1.23139
1.76054
1.64251
1.24992
1.85992
2.09299
0.0235299
0.0222426
0.0247526
0.0299163
0.0303881
0.0269081
0.0503691
0.0418813
0.0448307
0.027692
0.0314438
0.0300564
0.0454843
0.0351456
0.0358009
0.0345143
0.0417244
0.0391459
0.039425
0.0304047
0.729817
1.00766
0.602311
1.01371
0.461888
0.525015
0.186348
0.326972
1.1219
0.657006
1.13501
0.941883
0.243579
0.233961
1.15209
0.842082
1.129
0.735876
1.4201
0.484519
0.0219337
0.0445848
0.0551404
0.0549542
0.0372836
0.0281726
0.0250221
0.0391219
0.0490288
0.0417585
0.0426112
0.0380374
0.0658478
0.0316404
0.0840514
0.0765724
0.078487
0.510081
1.08451
0.988252
1.87093
0.557085
0.627824
0.804508
0.865436
2.85071
0.822443
0.50287
1.58242
0.0119942
0.0104983
0.00903168
0.00412002
0.0114661
0.00834729
0.00770139
0.00524058
0.0049898
0.0136218
0.00885025
0.00472832
0.0570457
0.000277184
0.0196461
0.00104385
0.0309816
0.0974805
0.00111104
0.0564163
0.0807404
0.164012
0.148201
0.00691757
0.0116299
0.247495
0.176703
0.262268
0.0092814
0.0212579
0.0350867
0.00782042
0.0170339
0.020165
0.00773278
0.0710225
0.0210742
0.0301001
0.00987355
0.0521145
0.151955
0.0376525
0.065006
0.0953342
0.360969
0.0081767
0.0161131
0.26497
0.457795
0.0398379
0.019739
0.0974948
0.242424
0.069352
0.24388
0.24748
0.200857
0.105979
0.141028
0.216342
0.155052
0.152807
0.0814035
0.0237671
0.125127
0.0682362
0.0634959
0.0216157
0.0131389
0.0207084
0.0257914
0.0480202
0.00181879
0.00364773
0.00246375
0.00261408
0.0673582
0.0663239
0.00831176
0.00104174
0.00453196
0.0338794
0.0705164
0.069635
0.0113503
0.00328016
0.00515637
0.13399
0.0765714
0.511953
0.35925
0.125247
0.485769
0.328696
0.219875
0.104966
0.00223884
0.00126824
0.0159988
0.053228
0.00472423
0.0209677
0.0213587
0.0074079
0.0269139
0.0188754
0.0204815
0.0246598
0.0248879
0.0106163
0.0110181
0.0227717
0.0274555
0.0257704
0.0207339
0.0176611
0.0261279
0.0200766
0.114413
0.0725289
0.0651122
0.168171
0.068409
0.570753
1.11492
0.0954525
0.2571
0.333362
0.232689
0.347179
0.307444
0.130959
0.815163
0.962772
1.24201
1.18351
0.498925
0.388011
0.229523
0.06742
0.0844997
0.381672
0.347307
0.15435
0.148291
0.145063
0.0820528
0.100869
0.156966
0.095878
0.0821326
0.123447
0.0719188
0.0469872
0.1279
0.194055
0.124863
0.12257
0.357278
0.37405
0.374798
0.368067
0.373407
0.364006
0.369717
0.377223
0.391846
0.36797
0.367022
0.377184
0.411606
0.378879
0.378105
0.371939
0.487733
0.375989
0.417492
0.521686
0.49073
0.415526
0.939034
0.749328
0.577597
0.802724
1.19774
0.731817
0.437361
0.822178
0.439055
0.768502
0.801925
1.53102
1.60728
0.878002
1.45405
1.71257
1.09891
1.55896
1.0794
0.730502
0.499598
0.359605
1.41131
0.999389
1.02297
0.19761
0.337323
1.21224
0.271517
1.00199
0.885035
0.251128
0.226262
0.192064
0.802631
0.980168
0.991163
0.972465
0.910505
0.985661
0.986567
0.921759
1.00253
0.954651
0.947752
0.977995
0.898376
0.842474
0.861112
0.816413
1.01462
0.963089
0.96395
0.863834
0.910057
0.960872
0.886325
0.634077
0.209406
0.235712
0.265684
0.731885
0.544451
0.954792
0.648226
0.559558
0.21323
0.432211
0.753493
0.54175
1.14484
1.07125
0.433399
0.463875
0.508147
1.46846
0.903795
0.952781
0.648394
0.401845
0.975823
1.08337
0.464031
0.345327
0.256526
0.949433
0.812079
1.03714
1.32576
0.604003
0.893928
0.89787
0.263347
0.653641
0.708045
0.283696
0.279173
0.990014
0.789878
0.810727
1.14338
0.8229
0.855166
0.301688
0.278767
0.65895
0.30361
0.563656
0.618353
0.571778
0.605619
0.588661
0.507044
0.498945
0.53438
0.496112
0.467532
0.382044
0.369013
0.482731
0.374792
0.36245
0.419754
0.428411
0.074273
0.0848547
0.0886042
0.0876982
0.0866918
0.0979664
0.0818482
0.0979442
0.0743736
0.0725486
0.076306
0.0985018
0.0773923
0.0926907
0.0835815
0.089736
0.0827908
0.0805415
0.0837179
0.112952
0.0965087
0.0844232
0.0874821
0.0649936
0.0580259
0.0591089
0.0356531
0.0148176
0.0106992
0.0381087
0.0422693
0.00920618
0.0055186
0.0249677
0.0235387
0.00368772
0.0208059
0.0115526
0.0165711
0.0177638
1.5413
1.3013
1.32942
1.54458
1.1754
1.53345
2.11524
1.20526
1.36353
1.72497
1.16602
1.12437
1.31084
1.16265
3.1768
1.39667
2.03277
0.122919
0.0209876
0.136412
0.67706
0.544597
0.0271283
0.0899246
0.0808542
0.0115435
0.262311
0.42057
0.708235
0.185532
0.173386
0.476604
0.698122
0.103549
0.106351
0.12036
0.115065
0.156784
0.189934
0.136821
0.952082
0.765443
0.158303
0.132648
0.280462
0.485096
0.782916
0.521545
0.614523
0.630363
0.779244
1.24656
1.65563
1.05114
1.51643
0.323242
0.640125
0.290727
0.0390816
0.0342414
0.0404107
0.0332915
0.0159725
0.0358025
0.0298023
0.026829
0.0346325
0.0413093
0.0343879
0.0322418
0.0268662
0.0325031
0.131635
0.167674
0.104806
0.109908
0.2422
0.0930205
0.107634
0.224815
0.351537
0.264462
0.416628
0.163634
0.163479
0.254719
0.0800518
0.695063
0.902774
0.606033
0.770245
1.24788
1.0681
1.32385
1.62086
0.77403
0.739187
1.33112
1.44324
1.21971
1.4768
1.32013
1.31742
1.38682
1.43704
0.0294515
0.0410707
0.0249032
0.0242695
0.027311
0.0239138
0.0282342
0.0222386
0.0220765
0.0174723
0.933567
0.919667
0.668932
1.13149
0.235248
0.195176
0.144588
0.292855
0.532431
0.65273
0.905882
0.936365
0.772221
0.175894
0.19464
0.0679144
0.596116
0.824471
0.180712
0.187621
0.158297
0.1886
0.515848
0.453017
0.416111
0.373079
0.514883
0.670127
0.325156
0.578176
0.531694
0.67806
0.561456
0.675238
0.315326
0.548544
0.552786
0.386566
0.312313
0.522637
0.00696355
0.0068547
0.00651534
0.00698936
0.00662983
0.00633101
0.0066997
0.00656626
0.00614565
0.00645083
0.00627231
0.0065334
0.00675435
0.00654449
0.00628658
0.00601724
0.00612513
0.00591792
0.00627093
0.962085
1.04263
0.7462
0.892014
0.741109
0.741118
0.829856
0.654135
0.717655
0.658045
0.940214
1.02075
1.01714
0.897602
0.75888
0.731397
0.862422
0.934985
0.0277359
0.0289375
0.0242717
0.0220774
0.0370015
0.0310578
0.0358723
0.030255
0.0280221
0.0471982
0.0354746
0.0368782
0.0370079
0.0444462
0.0597932
0.0571489
0.0040161
0.00412028
0.00410995
0.00403584
0.00406955
0.00400742
0.00399329
0.00395029
0.00397612
0.00396916
0.00397863
0.00393066
0.00398802
0.00460187
0.00456538
0.00468392
0.0046712
0.00459672
0.00446927
0.0049606
0.00471915
0.00508136
0.00475849
0.00487708
0.00486467
0.00479901
0.00494665
0.00463607
0.00426574
0.00480771
0.00405403
0.00445307
0.00465252
0.00203062
0.00407588
0.00427129
0.0044561
0.0044133
0.00455083
0.00370423
0.00430062
0.00425316
0.00427251
0.00361492
0.00883111
0.0088248
0.00861038
0.0080092
0.00813831
0.00846665
0.00787974
0.00791561
0.0082322
0.00831428
0.0099824
0.00982666
0.00840145
0.00802132
0.00826816
0.00832166
0.0097663
0.00867562
0.00888345
0.00869489
0.701364
0.687541
0.620259
0.393799
0.542743
0.464523
0.69411
0.551719
0.637485
0.305133
0.337129
0.611415
0.47946
0.57614
0.667467
1.03228
0.710483
0.798606
0.865235
0.929847
1.10121
0.839851
0.910723
0.946427
1.03851
1.11035
1.2798
1.03876
0.476503
0.438404
0.503599
1.03299
1.05384
0.0116707
0.0108919
0.0109276
0.00960718
0.0124179
0.0110854
0.00963152
0.00950137
0.0102603
0.0109181
0.00879792
0.0087153
0.00858003
0.00923291
0.0097502
0.237259
0.156248
0.139357
0.13066
0.280235
0.153245
0.210562
0.268588
0.323154
0.00809676
0.00851189
0.00749442
0.00751629
0.00817897
0.00736955
0.00728127
0.00771969
0.00703629
0.0067992
0.00684558
0.0066849
0.00703194
0.007868
0.00735334
0.00686154
0.00691861
0.00715492
0.00782189
0.00819013
0.00697684
0.00717506
0.00271928
0.00395256
0.00244765
0.00283916
0.00391985
0.00759188
0.00327719
0.00257776
0.00204131
0.00276101
0.00223428
0.00278104
0.00314437
0.00156629
0.00226286
0.00292502
0.00302246
0.00662356
0.00318261
0.00747891
0.00409588
0.0040077
0.00382349
0.0042137
0.00479856
0.00412096
0.00438583
0.00464042
0.00428145
0.00401302
0.00385609
0.00372366
0.00376347
0.00427493
0.0041843
0.00457441
0.0044341
0.00438662
0.00409173
0.00429523
0.00405882
0.00460194
0.00376318
0.00404398
0.00428421
0.00370552
0.0299861
0.0506456
0.0488068
0.037897
0.0146286
0.0420969
0.00131017
0.00344409
0.0471448
0.0175438
0.0622138
0.0313354
0.0260303
0.0034075
0.00575661
0.0210849
0.00598601
0.00894019
0.00336873
0.00540313
0.00604971
0.00785246
0.00561486
0.0224561
0.00550975
0.0102587
0.00605037
0.0061814
0.00578331
0.00656476
0.00781949
0.0057196
0.00647449
0.0180434
0.00908486
0.0114736
0.0141615
0.00764067
0.0101795
0.00953194
0.00938738
0.008019
0.00890526
0.00771985
0.00375048
0.00380283
0.00435074
0.00374306
0.00370339
0.004565
0.00400679
0.003696
0.0036408
0.00380872
0.00459089
0.00370281
0.00350515
0.00547873
0.00600006
0.00559851
0.00508105
0.00559517
0.00597556
0.0064182
0.00578177
0.0055499
0.00557953
0.0055015
0.00601327
0.00569551
0.226279
0.138925
0.184941
0.223827
0.186952
0.140626
0.175482
0.187186
0.190565
0.249037
0.263573
0.23248
0.244364
0.0213586
0.0107738
0.0125591
0.0118198
0.010549
0.0207813
0.00550993
0.0280204
0.0110129
0.0100719
0.0121541
0.0091058
0.00492619
0.00568789
0.011464
0.0136461
0.0122071
0.023436
0.0203438
0.0371431
0.0113367
0.00767485
0.0444834
0.039486
0.0896999
0.0299278
0.0434982
0.0294649
0.0119231
0.038463
0.0139553
0.0167863
0.0215574
0.0133176
0.0199725
0.0143859
0.0300655
0.0161759
0.0100056
0.0109399
0.0266853
0.0142304
0.0117362
0.0143729
0.018294
1.09321
1.11727
1.14029
1.02536
1.237
1.22963
1.4015
1.33836
1.33919
1.44019
1.44938
0.0039795
0.00385963
0.00411917
0.004285
0.00442063
0.00406083
0.00426508
0.00411422
0.00429695
0.00430743
0.00407461
0.00409618
0.00417776
0.00210981
0.00896819
0.00228209
0.0463815
0.00275787
0.00620831
0.00275624
0.00346643
0.00626991
0.00776115
0.00443718
0.00548389
0.00578359
0.00491101
0.0101067
0.00412472
0.00528974
0.00514489
0.0082
0.00446737
0.00454339
0.00456452
0.00356985
0.00381987
0.00305969
0.00205022
0.00461035
0.00337215
0.00346767
0.00462803
0.00351513
0.00377106
0.00397795
0.00379829
0.0038625
0.00343996
0.00330328
0.00378984
0.00384094
0.00397577
0.00392982
0.00424842
0.00419273
0.00403151
0.0039207
0.00394923
0.00400876
0.00401515
0.00396169
0.00450139
0.00411022
0.00411323
0.0158827
0.0146066
0.0185486
0.0129953
0.0132511
0.0171458
0.0186987
0.0151667
0.017366
0.0161048
0.013297
0.0174577
0.0142766
0.000473962
0.00450876
0.0041899
0.00217295
0.00315367
0.00349783
0.00335162
0.00392138
0.00372207
0.00357934
0.00356925
0.00246463
0.000334018
0.00347668
0.0039057
0.00283917
0.00466592
0.0030484
0.00744652
0.0101371
0.00231915
0.00908185
0.0123275
0.00908478
0.00904
0.01826
0.0157946
0.0127614
0.0210835
0.0240858
0.0179129
0.023208
0.0296696
0.0168376
0.0175809
0.0212593
0.0244863
0.018625
0.023177
0.391899
1.16137
0.277519
0.475102
0.38709
0.878407
0.132961
0.13209
0.8842
0.127936
0.533609
1.32464
0.628915
0.473896
0.581659
0.383018
0.0969784
0.35547
0.604804
0.15537
0.841011
0.541314
0.227989
0.0972718
0.324397
0.732188
0.762882
0.00837149
0.0220757
0.0226454
0.00203486
0.00890604
0.557632
0.370777
0.501068
0.0628574
1.04796
0.11186
1.08078
2.28035
1.8824
0.994141
2.05201
2.33734
0.892476
1.72425
0.329028
1.17483
0.971012
0.749834
0.856991
1.01229
0.856388
0.871073
1.05568
0.964118
0.81467
0.509651
0.900891
0.823192
0.522827
0.628391
1.12095
1.07025
0.790723
0.0432805
0.0782053
0.126415
0.113003
0.0704803
0.132472
0.059298
0.198382
0.0222524
0.0417198
0.364153
0.535861
0.32835
0.431421
0.232469
0.0899884
0.112126
0.141336
0.380524
0.106387
0.339417
0.392248
0.212067
0.186166
0.207897
0.144599
0.177354
0.284041
0.496645
0.418382
0.0843304
0.2796
0.456063
0.287568
0.054042
0.0035884
0.0166286
0.00164806
0.00354242
0.00168942
0.0369711
0.00337289
0.0247593
0.034036
0.0405515
0.0387484
0.00398438
0.00380222
0.00319463
0.00496157
0.012949
0.0122707
0.84611
1.17251
1.0748
1.07986
1.32113
0.928142
1.96157
0.221186
1.68499
0.778101
0.291571
0.0975002
0.279659
0.419562
1.05603
0.227858
1.15732
0.805043
0.236981
0.344092
0.0634552
0.272864
0.00285147
0.00295682
0.00185799
0.00200109
0.00283228
0.00277908
0.00283278
0.00267233
0.00280722
0.00312154
0.00257111
0.00271136
0.00253835
0.00256242
0.0025979
0.00230358
0.00259888
0.0027816
0.00269919
0.00254217
0.0082433
0.0254521
0.0786982
0.0042786
0.00155417
0.00299322
0.0847154
0.000684555
0.0185604
0.00359098
0.00371985
0.0259339
0.00354636
0.00367116
0.0252558
1.90434
3.18656
2.18222
3.6608
2.95836
3.52499
3.84827
1.71887
0.0115183
0.00756655
0.0227935
0.019448
0.0201095
0.00546591
0.00997238
0.00604836
0.0196279
0.015103
0.00589951
0.014422
0.0814438
0.118177
0.97267
0.365035
0.0882932
0.160794
0.896101
0.674599
0.880363
0.93091
1.31689
0.681143
1.08649
1.71549
0.522621
0.202437
0.206465
0.285564
0.00231135
0.00514355
0.00598788
0.00738001
0.00684193
0.00222532
0.00295377
0.00566471
0.00502905
0.00640914
0.00926375
0.00443999
0.00372374
0.00681345
0.00362844
0.00831913
0.00999306
0.0048509
0.0432265
0.0439257
0.0662204
0.0683554
0.0585786
0.0628783
0.0339958
0.0419991
0.0498604
0.0766857
0.0681699
0.0454992
0.0967907
0.0469768
0.068123
0.0700697
0.06384
0.0418091
0.0408551
0.066859
0.0701275
0.037542
0.0145513
0.0131877
0.0150969
0.0177358
0.013915
0.0167936
0.014671
0.0130785
0.0156652
0.0174735
0.0172528
0.015797
0.0155465
0.0144159
0.0157443
0.0140283
3.73976
3.35244
2.9885
3.69863
3.04881
3.01588
2.12402
1.56894
1.08232
1.06932
1.12896
1.14918
2.38634
1.20175
1.53402
1.30308
1.60084
1.88167
0.0626268
0.131307
0.116932
0.0603175
0.0337075
0.0201649
0.0581869
0.0697227
0.0875695
0.0692845
0.0371912
0.0297716
0.025493
0.0297305
0.0536353
0.0376551
0.00805674
0.00445801
0.00277689
0.00277109
0.00401709
0.00296302
0.00299243
0.00300657
0.00215441
0.00200129
0.0117793
0.00864163
0.0162457
0.000471527
0.0026077
0.0021348
0.00245047
0.00263528
0.00639601
0.0127187
0.456438
0.448365
0.362318
0.206612
0.0489186
0.210858
0.0102343
0.15591
0.212816
0.335737
0.0562061
0.0474979
0.118717
0.13947
0.0681341
0.0792013
0.0798231
0.0432827
0.0378677
0.0452644
0.0737917
0.0713757
0.0192785
0.0671513
0.0222613
0.020954
0.0173917
0.0291145
0.242631
0.17097
0.103585
0.202818
0.296437
0.0628598
0.0457731
0.185764
0.200075
0.179809
0.0472681
0.0358629
0.107514
0.13238
0.0811896
0.0576698
0.0921457
0.0374343
0.0339543
0.00422042
0.0388415
0.0375832
0.0430553
0.0422173
0.0281095
0.0331793
0.0158811
0.0139776
0.0190093
0.0120534
0.0462417
0.0454627
0.0240467
0.0384257
0.035618
0.0359082
0.0587089
0.0255834
0.0122616
0.0845763
0.0714232
0.029558
0.0326306
0.0497961
0.000775125
0.00195558
0.00639047
0.00103251
0.00101576
0.0019167
1.71186e-05
0.000714043
0.0184799
0.0390057
0.0341992
0.00619788
0.00586089
0.0126348
0.00905933
0.0116879
0.00775131
0.00848885
0.00327733
0.00490436
0.000535546
0.0092828
0.00905631
0.00498805
0.004667
0.00499202
0.00501414
0.00460447
0.00476414
0.00505833
0.00486481
0.00486443
0.00482628
0.00496166
0.00473121
0.00457961
0.00478322
0.0120709
0.0124055
0.0167161
0.0162471
0.0171409
0.0172743
0.0119658
0.010677
0.0142595
0.0151544
0.0123719
0.015334
0.013216
0.0138118
0.0429766
0.0470273
0.0481379
0.0562549
0.11794
0.121851
0.125471
0.137167
0.0448347
0.0842937
0.0796593
0.0797187
0.112386
0.0775051
0.0700442
0.379525
0.456314
0.0421114
0.0528776
0.134695
0.38863
0.484916
0.023338
0.0549175
0.0284579
0.0607791
0.137364
0.0356047
0.0556029
0.0255304
0.00827213
0.0401225
0.526479
0.491995
0.450039
0.452294
0.441343
0.441575
0.489561
0.534797
0.426847
0.417148
0.449496
0.496087
0.540456
0.449514
0.386228
0.471753
0.529669
0.529501
0.585085
0.547633
0.546123
0.538666
0.258659
0.27155
0.381004
0.389096
0.42389
0.667347
0.226185
0.241132
0.233586
0.409443
0.204951
0.188251
0.633583
0.533255
0.463836
0.110897
0.170978
0.083137
0.0652055
0.220287
0.202956
0.207677
0.149793
0.218281
0.0602995
0.155269
0.0682063
0.207321
0.24642
0.15234
0.187613
0.360695
0.365452
0.168575
0.25941
0.361887
0.41279
0.402065
0.320862
0.279038
0.270219
0.273269
0.300272
0.130687
0.181823
0.340627
0.204021
0.19336
0.213669
0.00356707
0.00373421
0.0039281
0.00358139
0.00334132
0.00369449
0.00333199
0.00337587
0.00361052
0.00338503
0.00334932
0.00333714
0.00335946
0.00339914
0.00335917
0.00335327
0.00335123
0.00335506
0.00331082
0.0033616
0.000114006
0.0118889
0.00440323
0.00581603
0.0272456
0.0101883
0.00550124
0.0185015
0.00709317
0.00556581
0.00380612
0.0349899
0.00662625
0.00610324
0.00603233
0.00602744
0.00667547
0.00623276
0.00689504
0.00693634
0.00642997
0.00621206
0.00612528
0.00621792
0.00600984
0.00693865
0.00672121
0.0419898
0.0514477
0.0462322
0.0474256
0.224453
0.1915
0.157866
0.159453
0.205172
0.0584461
0.0848353
0.03254
0.0374818
0.133692
0.10061
0.0797369
0.0677673
0.0661435
0.102762
0.0816532
0.0640085
0.165821
0.161254
0.344336
0.264287
0.154327
0.223275
0.204679
0.292489
0.0886232
0.0182352
0.0979423
0.0101913