/*--------------------------------*- C++ -*----------------------------------*\
  =========                 |
  \\      /  F ield         | OpenFOAM: The Open Source CFD Toolbox
   \\    /   O peration     | Website:  https://openfoam.org
    \\  /    A nd           | Version:  10
     \\/     M anipulation  |
\*---------------------------------------------------------------------------*/
FoamFile
{
    format      ascii;
    class       volScalarField;
    location    "13";
    object      nut;
}
// * * * * * * * * * * * * * * * * * * * * * * * * * * * * * * * * * * * * * //

dimensions      [0 2 -1 0 0 0 0];

internalField   nonuniform List<scalar> 
75457
(
0.0605175
0.0655339
0.0527749
0.0219727
0.0605728
0.0261393
0.0627047
0.0210485
0.0301244
0.030027
0.0291498
0.0443462
0.0580882
0.0207769
0.0351467
0.0288339
0.00792889
0.0208854
0.025316
0.00528747
0.01292
0.00857653
0.0326512
0.0337209
0.0209213
0.0385901
0.0393979
0.056105
0.0460878
0.0753459
0.0514643
0.0663755
0.063452
0.0302735
0.0259377
0.0360137
0.0308968
0.0620308
0.0584581
0.0315999
0.0322186
0.0299806
0.034202
0.0254311
0.0422959
0.0116547
0.00693572
0.0254238
0.098413
0.0548873
0.0770425
0.0964619
0.0900991
0.0797333
0.0588949
0.0611183
0.124441
0.107492
0.101784
0.0151828
0.0911423
0.102316
0.0518219
0.044275
0.0079853
0.041075
0.0129981
0.0452504
0.0568678
0.0116275
0.0565157
0.0126949
0.0466997
0.00373034
0.0561363
0.0180997
0.0181012
0.166019
0.174723
0.171781
0.13958
0.127478
0.225854
0.250642
0.155297
0.208036
0.197718
0.134853
0.185802
0.128196
0.251483
0.248373
0.143522
0.193123
0.160328
0.0987198
0.09827
0.101434
0.0141646
0.122961
0.095504
0.112981
0.00514418
0.00136279
0.0010137
0.0013573
0.00898624
0.00216635
0.0101638
0.0427183
0.0669321
0.00808167
0.0079053
0.0520393
0.013584
0.0846933
0.0116826
0.049706
0.0522298
0.013699
0.00311047
0.0106502
0.0114519
0.0288848
0.0590013
0.0356534
0.00738004
0.0682361
0.0740564
0.0128772
0.02468
0.130718
0.0420053
0.0968317
0.155767
0.0567438
0.0512987
0.136296
0.12457
0.00991823
0.030506
0.0491508
0.0692228
0.0348458
0.0413373
0.109126
0.0828774
0.0637622
0.0682006
0.137387
0.0111527
0.119136
0.0548601
0.0478938
0.0678483
0.0719097
0.154212
0.00769511
0.0780833
0.124403
0.00816365
0.0582064
0.120424
0.000864579
0.000869403
0.000861274
0.000878591
0.000872254
0.00086864
0.00086499
0.000855742
0.00088315
0.000849084
0.000866801
0.000868948
0.000868314
0.0789157
0.0920438
0.115781
0.0961453
0.208827
0.00724662
0.180897
0.0752332
0.00872454
0.102096
0.191663
0.0891723
0.075711
0.0173427
0.120369
0.0731318
0.0967795
0.0707851
0.0683612
0.0136783
0.0267153
0.0539997
0.0467938
0.0320341
0.0237161
0.0763665
0.0826543
0.00802534
0.0758516
0.0725048
0.069262
0.129931
0.117285
0.11703
0.107112
0.104792
0.0128428
0.0133277
0.111396
0.0934156
0.0145181
0.103707
0.0146332
0.0153752
0.0634629
0.106888
0.0771107
0.00983221
0.0830189
0.0834876
0.0138884
0.067383
0.106085
0.00719002
0.0460303
0.0447759
0.0633775
0.0784179
0.0914449
0.105627
0.121457
0.0897333
0.090955
0.0923016
0.0895589
0.113793
0.00935522
0.125122
0.0736767
0.093837
0.104175
0.11933
0.10425
0.0124108
0.103071
0.0096466
0.0700828
0.0104367
0.0894523
0.00731756
0.0647971
0.0266195
0.0408183
0.00853172
0.0313301
0.034379
0.0935517
0.0579443
0.0935656
0.017747
0.0940562
0.0159308
0.0160368
0.0713629
0.0121938
0.0802678
0.142221
0.141654
0.0902181
0.130967
0.095054
0.0776125
0.0110327
0.0834805
0.1115
0.00944465
0.0996698
0.00853125
0.103419
0.00779339
0.100724
0.0656433
0.074622
0.0903767
0.080891
0.0857957
0.148571
0.0092987
0.0686377
0.0121931
0.0697402
0.108364
0.110812
0.0105254
0.116827
0.053671
0.0333017
0.152376
0.0865407
0.258544
0.013659
0.160907
0.221816
0.0195036
0.314848
0.162279
0.125027
0.159222
0.0748834
0.0612834
0.0729326
0.0764475
0.0568071
0.0297071
0.0463118
0.0817553
0.0660211
0.031242
0.0104527
0.113006
0.0961863
0.0893172
0.123129
0.0856806
0.055234
0.0583067
0.0993705
0.00845602
0.0955159
0.0970276
0.136187
0.140328
0.012499
0.110804
0.128699
0.0113733
0.125564
0.110743
0.0386179
0.0661239
0.0692296
0.115192
0.0327518
0.098423
0.141416
0.02608
0.100418
0.118943
0.116249
0.146667
0.130912
0.0210066
0.105595
0.136114
0.0182967
0.0138285
0.019688
0.0132091
0.0845475
0.0869528
0.0811243
0.0909262
0.0920126
0.0876503
0.100462
0.0944333
0.0932517
0.102008
0.0133291
0.0862835
0.0864261
0.12133
0.0086604
0.122611
0.0934734
0.0824887
0.0170561
0.0220948
0.0686706
0.289245
0.101118
0.123116
0.0697641
0.0705568
0.0940695
0.00088671
0.000911826
0.000848227
0.000847139
0.000921843
0.000962801
0.00087934
0.00093258
0.000905898
0.00113653
0.000837896
0.000837849
0.000813516
0.000820535
0.00084753
0.000838753
0.000826265
0.000837423
0.000897668
0.00090287
0.000857198
0.000816315
0.000793924
0.000801895
0.000868979
0.000857669
0.000856466
0.00079906
0.000788863
0.000826408
0.000838625
0.000910396
0.000904599
0.000850934
0.000848238
0.000885861
0.000869831
0.000853805
0.000853481
0.000912721
0.000901917
0.000876481
0.000895622
0.000869897
0.00086132
0.000858508
0.00085617
0.000893265
0.00091678
0.000865242
0.000884879
0.000894301
0.000873383
0.0517635
0.0249008
0.0260454
0.0238361
0.0253147
0.0451271
0.0224102
0.0274781
0.0193437
0.0491469
0.0196099
0.01905
0.0203574
0.0214644
0.0172604
0.0474481
0.0460002
0.0392308
0.0526925
0.0257427
0.0315429
0.0326246
0.058696
0.0250409
0.0319391
0.0303293
0.0434836
0.0361612
0.0532444
0.0301661
0.0274914
0.00858835
0.00357497
0.00525788
0.0205585
0.0193604
0.0127768
0.00493653
0.00488638
0.00494898
0.0060992
0.00372934
0.0121964
0.0191883
0.018687
0.0224765
0.0532652
0.0243839
0.0153704
0.0151122
0.000877894
0.000879722
0.000888415
0.000886567
0.000876738
0.000915646
0.000915707
0.000834021
0.000865848
0.000906287
0.000902633
0.000950287
0.00091189
0.000866479
0.000861562
0.000866273
0.000842652
0.000839087
0.000840948
0.00084476
0.000845187
0.00083582
0.000852901
0.000847181
0.000846171
0.000847112
0.000859449
0.000847315
0.000850794
0.000849021
0.000854911
0.000862898
0.000853752
0.000944886
0.000977542
0.000971316
0.001009
0.00100984
0.000992869
0.00075177
0.00147362
0.000930826
0.00100805
0.000847245
0.000984919
0.000954408
0.000986117
0.000925639
0.000962502
0.000771905
0.102278
0.09903
0.0973943
0.0997231
0.0982365
0.115127
0.134042
0.135921
0.102539
0.109322
0.097438
0.0998603
0.144767
0.0936302
0.13868
0.0921355
0.111999
0.117105
0.022264
0.0241556
0.028442
0.0342607
0.0149111
0.0389059
0.0246347
0.0260894
0.0275372
0.0445816
0.0291008
0.0295588
0.0286681
0.0162475
0.0441428
0.0413551
0.0572394
0.0367124
0.0581651
0.0579298
0.0594386
0.0422151
0.0385249
0.0601576
0.0601726
0.0594314
0.0420895
0.030727
0.030814
0.0508231
0.0368862
0.0486333
0.000919777
0.000920923
0.000922488
0.000978058
0.00102704
0.000920617
0.000894329
0.000961873
0.00094516
0.000943925
0.000852403
0.00102071
0.0664358
0.0480614
0.0871587
0.03913
0.0777133
0.0637677
0.0620472
0.0660187
0.0805142
0.0251022
0.0169671
0.0194884
0.0168427
0.0145422
0.0189185
0.017699
0.00652356
0.0163276
0.00541462
0.0146173
0.0273749
0.0255171
0.0318595
0.0215723
0.0208894
0.0152042
0.011948
0.00718
0.0276119
0.013042
0.0166619
0.0151296
0.00150429
0.00040319
0.0112297
0.00235964
0.00043132
0.0154335
0.0115911
0.00380019
0.000406448
0.000539728
0.000164494
0.000550705
0.00083391
0.00073244
0.00137828
0.0154129
0.0139644
0.01382
0.00457087
0.0521105
0.0416438
0.0311323
0.0651212
0.0401871
0.0532397
0.0433638
0.0259521
0.0395545
0.0257007
0.0604684
0.0513439
0.0450488
0.0457078
0.106291
0.11826
0.096579
0.101248
0.103184
0.101086
0.0786056
0.0937262
0.115734
0.0784336
0.0802202
0.115526
0.0868275
0.0774051
0.0851839
0.0817766
0.0809927
0.082591
0.0403685
0.0691213
0.0763307
0.00615213
0.0221937
0.0612525
0.0367692
0.0110427
0.0195919
0.0811555
0.0666798
0.20489
0.21067
0.185493
0.130346
0.147941
0.181953
0.190655
0.157756
0.193138
0.185757
0.177085
0.14613
0.14422
0.178957
0.150106
0.160686
0.17246
0.179182
0.168955
0.133395
0.16804
0.0136581
0.0100853
0.0296546
0.0223229
0.0252782
0.0119233
0.0196796
0.0195976
0.0193042
0.0475667
0.0547882
0.0628057
0.0106037
0.0554507
0.0738435
0.045342
0.0614064
0.00590111
0.0216524
0.0403533
0.0288765
0.0238033
0.0278082
0.041283
0.0209576
0.0232622
0.0496483
0.026057
0.209495
0.23337
0.21617
0.176808
0.181286
0.196201
0.195827
0.174937
0.150795
0.176801
0.196279
0.188891
0.166701
0.0256006
0.0300407
0.00950254
0.0117418
0.0100611
0.00924928
0.0148089
0.0180051
0.0463263
0.0206029
0.0323592
0.0348613
0.0110331
0.0110764
0.0332383
0.0201516
0.033829
0.0331382
0.0252903
0.0392941
0.0459376
0.0216453
0.0262854
0.00997918
0.0371927
0.0132177
0.0105027
0.0414643
0.0407846
0.00862793
0.0291151
0.0333368
0.0278407
0.0261793
0.0412805
0.0130548
0.0211575
0.055289
0.0367045
0.0180264
0.00273591
0.0062967
0.0407315
0.0585841
0.0310317
0.0314737
0.0446751
0.0549406
0.030829
0.0337056
0.0376031
0.0243726
0.0240916
0.0411305
0.0442569
0.0545361
0.0258125
0.026499
0.0342173
0.0549253
0.0365459
0.0298411
0.0406976
0.0310174
0.0563178
0.0477979
0.00988291
0.0150645
0.0186442
0.0225277
0.0137728
0.0153739
0.0255075
0.0568691
0.0701561
0.0570753
0.0190816
0.028305
0.0162622
0.0524378
0.03877
0.0131465
0.0117968
0.0100831
0.010937
0.0121735
0.00983254
0.00875458
0.00951439
0.0092449
0.0116739
0.0123111
0.00823476
0.0115867
0.0117373
0.000861542
0.000793969
0.000806921
0.000869367
0.000842782
0.000814259
0.000831095
0.000849
0.000898947
0.000901443
0.0424871
0.0325449
0.0457355
0.0550616
0.0230306
0.0205509
0.0522422
0.0629678
0.0275618
0.0450994
0.0450249
0.0456654
0.0498656
0.0191347
0.0493617
0.0446865
0.0127981
0.109071
0.11263
0.109618
0.172303
0.163779
0.136699
0.158528
0.155389
0.166414
0.180832
0.101259
0.103059
0.121502
0.114511
0.145974
0.165911
0.157786
0.112775
0.118156
0.125821
0.000516284
0.00076408
0.000769229
0.000462025
0.000957931
0.00551171
0.00584095
0.00108809
0.000760386
0.000708938
0.00566485
0.00704045
0.000413087
0.00363126
0.00468924
0.00781409
0.190176
0.243004
0.322097
0.296107
0.140962
0.220084
0.135318
0.183063
0.277229
0.260386
0.149732
0.164152
0.201112
0.0284192
0.038863
0.0348273
0.0223853
0.0209888
0.0236309
0.0360277
0.0314921
0.0259114
0.0239778
0.0168353
0.0249436
0.0105289
0.0273528
0.023531
0.0138586
0.0289021
0.0265826
0.0130754
0.0120017
0.0117954
0.0140367
0.00038138
7.67287e-05
0.00066251
0.000423395
0.000334318
0.00670556
0.0260004
0.00100244
0.00964482
0.0531661
0.0583327
0.0327941
0.0304118
0.0352818
0.0120891
0.0348095
0.0422738
0.0345558
0.0157749
0.0155109
0.0329835
0.00855663
0.019444
0.0164345
0.0148204
0.0152452
0.0205702
0.0135171
0.197353
0.140088
0.19672
0.199649
0.166468
0.178962
0.124467
0.207684
0.174951
0.201553
0.203024
0.211567
0.193083
0.181295
0.196194
0.163143
0.0159564
0.0337152
0.0291559
0.0171534
0.00249268
0.00426171
0.00603951
0.00267026
0.00244658
0.00226827
0.0190903
0.0131571
0.00413113
7.73411e-05
0.006424
0.00491471
0.0222638
0.138697
0.0899554
0.122884
0.0244396
0.127817
0.0840198
0.0628906
0.0771172
0.0771881
0.0821687
0.10227
0.157115
0.167477
0.0929266
0.0958236
0.098368
0.097879
0.0845032
0.165597
0.002001
0.00121033
0.00100689
0.000920272
0.00111441
0.000827502
0.000849785
0.000909031
0.000962076
0.00202504
0.00224519
0.00125605
0.00116442
0.000845458
0.00218982
0.012718
0.0139815
0.0235295
0.0318768
0.0398749
0.037513
0.0423393
0.0198823
0.0551873
0.0691113
0.0635718
0.0349607
0.0735997
0.0710143
0.00657177
0.0106614
0.00511961
0.00604153
0.00542956
0.0081711
0.0032936
0.00208719
0.00823776
0.00219219
0.00428054
0.00207218
0.00324026
0.00210664
0.00169205
0.00181296
0.031169
0.0331791
0.0273248
0.0272347
0.0620449
0.062552
0.0191934
0.0421309
0.040289
0.0235589
0.0630358
0.0531857
0.0648463
0.0512046
0.0545815
0.063491
0.0670235
0.0649366
0.0634392
0.00447476
0.0150578
0.00724197
0.00883396
0.00487195
0.0306177
0.010465
0.0161035
0.0191379
0.0144079
0.00487589
0.00605214
0.00685107
0.00573217
0.0211169
0.0177871
0.0169571
0.0352422
0.0262122
0.0306435
0.0147258
0.0210224
0.0373059
0.025678
0.0225836
0.00193026
0.00165729
0.00146424
0.00960555
0.000536073
0.000860242
0.00345767
0.00303421
0.00166511
0.00147451
0.00343578
0.00389721
0.00162837
0.00312332
0.00112694
0.000876869
0.000912905
0.00103744
0.00418369
0.00108672
0.00741968
0.00674219
0.00544077
0.0103626
0.00801903
0.0078173
0.0208096
0.00758151
0.0205415
0.0235596
0.0185309
0.0131189
0.110233
0.162329
0.0137643
0.163652
0.0690607
0.101275
0.0700888
0.00988701
0.0115476
0.0922437
0.0818195
0.0777421
0.0131361
0.0957329
0.0964468
0.0772988
0.0972972
0.0866255
0.0876007
0.0908112
0.0916462
0.0894556
0.0865838
0.0915263
0.0918378
0.0998964
0.0153785
0.0912925
0.0174486
0.0916328
0.0907403
0.0904127
0.0856944
0.0897392
0.111916
0.103748
0.108638
0.0218152
0.0379003
0.0133177
0.0222725
0.015337
0.0108322
0.00683718
0.0165543
0.00963449
0.00868869
0.00779788
0.00793131
0.00823071
0.00892095
0.00877283
0.00683521
0.188203
0.132044
0.15264
0.17054
0.0645216
0.0903326
0.211897
0.104273
0.0762506
0.113541
0.0954183
0.123807
0.0539642
0.102216
0.0169475
0.101124
0.0142137
0.0642356
0.0256785
0.0974361
0.0229472
0.115479
0.0757856
0.0835761
0.0935488
0.0719364
0.113841
0.0144192
0.105737
0.0457237
0.0790291
0.0850382
0.0158754
0.0798952
0.111608
0.102348
0.106518
0.0923898
0.0717651
0.152496
0.00998945
0.0543949
0.067717
0.0142396
0.0671947
0.0853412
0.0497807
0.12124
0.0154431
0.134074
0.0679375
0.0989007
0.0132448
0.0824847
0.0574314
0.100734
0.0594463
0.0946709
0.0149781
0.0959022
0.0625839
0.0673555
0.0848245
0.0896198
0.0698519
0.0671388
0.0753937
0.0695102
0.0417571
0.0558507
0.0490911
0.0717116
0.0726874
0.030701
0.034921
0.0364764
0.062752
0.0764463
0.0482877
0.0547124
0.0353509
0.0661124
0.0683688
0.0192797
0.0214548
0.0108888
0.00909217
0.0105385
0.0118793
0.0259041
0.0246698
0.0123518
0.0158146
0.012207
0.0696099
0.0829392
0.0536892
0.00091322
0.00090359
0.000914899
0.000962944
0.000909794
0.000883307
0.00328366
0.00363356
0.00550773
0.00290558
0.000130061
0.000998528
0.00138493
0.000813948
0.00254085
0.00236628
0.00718105
0.00245404
0.000566299
0.000683659
0.0396381
0.0586804
0.0538023
0.0446447
0.027999
0.0356924
0.0226349
0.010065
0.0513722
0.0670134
0.053505
0.0210026
0.023549
0.011268
0.0330672
0.0311031
0.033373
0.0388132
0.0338728
0.00518844
0.00308714
0.00482433
0.00375437
0.0495019
0.0603526
0.0239792
0.0317352
0.0125762
0.00335276
0.0344165
0.0102318
0.00637004
0.0288185
0.0497693
0.0318987
0.0215009
0.0291508
0.0216399
0.0301302
0.0540185
0.0495721
0.0777155
0.0542288
0.0775862
0.0891201
0.0884794
0.102118
0.0964199
0.105501
0.0863669
0.0772354
0.0980752
0.0854654
0.0964791
0.087145
0.0666468
0.0771973
0.0841072
0.175439
0.217595
0.202731
0.29893
0.13229
0.0971331
0.16449
0.170301
0.226184
0.126063
0.127261
0.153264
0.13831
0.165734
0.264038
0.155965
0.000961128
0.00097406
0.00102925
0.00114862
0.000998187
0.000979152
0.00166037
0.00096442
0.00109364
0.000757681
0.000973343
0.000948205
0.00101746
0.00104125
0.0011009
0.00110479
0.00107255
0.00101002
0.000998624
0.00103557
0.0917532
0.105187
0.0770033
0.100334
0.073763
0.0786504
0.0438252
0.0620193
0.0940089
0.0807798
0.0108057
0.101411
0.0521741
0.0526236
0.0819669
0.0762683
0.0107613
0.0837552
0.0133731
0.0741927
0.000715856
0.00118824
0.00132957
0.000983316
0.000885762
0.000944445
0.00101644
0.000990204
0.00104071
0.000994268
0.000939875
0.00106825
0.00105234
0.000770918
0.00106378
0.000945416
0.00141993
0.155513
0.0903112
0.142166
0.01278
0.0917458
0.107633
0.0948174
0.112287
0.0191869
0.109197
0.248718
0.074435
0.000989409
0.000905507
0.000593939
0.000283299
0.000873185
0.000719448
0.000704238
0.000490577
0.000356018
0.000899756
0.000702673
0.000365669
0.00444296
1.95393e-05
0.00169739
8.0962e-05
0.00241768
0.00811724
7.19796e-05
0.0050302
0.00712904
0.0282785
0.0260504
0.00126104
0.00206817
0.0391895
0.0301312
0.0416125
0.00161845
0.00385762
0.00623193
0.00140012
0.00311521
0.00372796
0.00144228
0.0121993
0.00371123
0.00538075
0.00179692
0.0108006
0.0288797
0.007823
0.0130377
0.0187187
0.0571926
0.00171168
0.00325076
0.0435648
0.065791
0.0077568
0.00406908
0.0191992
0.0409954
0.0134359
0.0241044
0.0295341
0.0312216
0.0174454
0.0137015
0.0330512
0.0278218
0.0241144
0.0130604
0.003741
0.0222954
0.0109365
0.0102092
0.00345475
0.00418812
0.00645023
0.00813974
0.0145387
0.000591125
0.00120245
0.000780053
0.000834441
0.0194054
0.0183125
0.0026575
0.000331309
0.00142097
0.0103015
0.0201789
0.0203403
0.00159342
0.00045708
0.000705136
0.0188166
0.0108064
0.0630899
0.0515322
0.0177214
0.0572933
0.0451598
0.0333351
0.0163415
0.000314334
0.000161434
0.00208082
0.00736813
0.000650762
0.000960172
0.000971013
0.00044128
0.00148562
0.000961233
0.000933749
0.000978661
0.000975773
0.000569543
0.000557166
0.000890827
0.000911909
0.00103629
0.000778441
0.000743339
0.0010388
0.000832052
0.0156501
0.0124342
0.0120631
0.0213536
0.013055
0.0406221
0.0541235
0.0178359
0.0226121
0.0282971
0.0259521
0.0339782
0.026471
0.0224855
0.115991
0.0945146
0.0273768
0.171029
0.0603109
0.0571258
0.0407299
0.01454
0.0189088
0.0555348
0.052934
0.029268
0.0287167
0.029452
0.0170362
0.021114
0.0313924
0.0206161
0.0182824
0.0254116
0.0156612
0.0101299
0.0263138
0.0369
0.0266552
0.0261776
0.0919403
0.105297
0.115057
0.104057
0.090487
0.107493
0.111432
0.112927
0.0901701
0.111161
0.105972
0.103818
0.109558
0.11626
0.118615
0.118706
0.0902175
0.0849262
0.0866111
0.0914572
0.103734
0.0975335
0.10568
0.129692
0.0937231
0.130723
0.0143307
0.0902084
0.0880522
0.091544
0.102217
0.106054
0.0900167
0.11066
0.019578
0.0873009
0.0997025
0.0211451
0.102654
0.0204079
0.0959286
0.0928593
0.0854189
0.0789269
0.0180836
0.102548
0.0922111
0.0649467
0.0773999
0.106034
0.0695714
0.0965211
0.0934499
0.0659685
0.0645089
0.0583777
0.099364
0.176006
0.157493
0.173051
0.116249
0.12904
0.133886
0.102536
0.143371
0.158876
0.124808
0.15163
0.133972
0.111913
0.126562
0.023746
0.118563
0.10809
0.112429
0.0204957
0.100423
0.122351
0.111222
0.114048
0.0472761
0.0521919
0.0565362
0.0872299
0.0782674
0.131588
0.0939849
0.0860364
0.0508536
0.0699471
0.098943
0.0704103
0.0106982
0.00992246
0.0680148
0.0719444
0.0735688
0.0136418
0.107001
0.0783712
0.0866837
0.121088
0.108138
0.011407
0.0757551
0.0716544
0.0633909
0.0983795
0.0964488
0.0726794
0.0139917
0.0903385
0.0980903
0.089984
0.0634931
0.106939
0.124931
0.0644349
0.0636247
0.103758
0.0915053
0.0806605
0.0113016
0.118659
0.0831334
0.068336
0.0678336
0.0851757
0.071137
0.127676
0.133314
0.144528
0.134763
0.117756
0.135588
0.13288
0.115699
0.1359
0.132741
0.100218
0.100562
0.141121
0.111924
0.1047
0.123766
0.12735
0.0377678
0.0423475
0.0438323
0.0438527
0.0436817
0.0462447
0.0419588
0.0503139
0.0374405
0.0370011
0.0393031
0.046943
0.0390402
0.0451585
0.0426703
0.0438356
0.0419253
0.0405985
0.0415162
0.0486443
0.0447962
0.0425677
0.0349258
0.0293119
0.0269024
0.0275684
0.0193089
0.00882735
0.00659802
0.020316
0.0210694
0.00572803
0.00345482
0.014055
0.013226
0.00231141
0.0122103
0.00691604
0.00990821
0.0105751
0.205916
0.162712
0.140613
0.142706
0.142015
0.14219
0.266469
0.174574
0.145821
0.217259
0.162869
0.151801
0.189764
0.180749
0.238374
0.186489
0.242897
0.0311414
0.00605657
0.0344612
0.0883623
0.0859797
0.00782223
0.0239257
0.0215862
0.00349271
0.0566761
0.0812908
0.0973726
0.0572804
0.0549918
0.0901928
0.104682
0.0385283
0.0374789
0.042595
0.0410728
0.051104
0.0474095
0.0451066
0.0968259
0.100808
0.0452635
0.0408079
0.057365
0.0857179
0.0941703
0.0857473
0.0972461
0.0878092
0.0971046
0.0816809
0.0149114
0.0976141
0.0137086
0.0730407
0.0857288
0.0690354
0.0214117
0.0192778
0.0220769
0.0186896
0.00940487
0.0194235
0.0166422
0.0152231
0.018031
0.0205978
0.0182927
0.0175704
0.0151156
0.0176204
0.0407475
0.0523345
0.0364486
0.0386255
0.0588496
0.0352245
0.03811
0.0587212
0.0785197
0.0685717
0.0874528
0.0464448
0.0516124
0.0643385
0.0314513
0.078681
0.100877
0.0313985
0.0399063
0.24092
0.0553383
0.211983
0.282588
0.0763844
0.114161
0.127245
0.248384
0.256071
0.189509
0.17871
0.27307
0.284466
0.211516
0.0014444
0.00169425
0.000972136
0.00119023
0.00128336
0.00111235
0.00119078
0.00113284
0.000940389
0.000894242
0.0932485
0.0119398
0.087144
0.0146963
0.054719
0.049981
0.0412363
0.0609709
0.0742511
0.0744098
0.0865436
0.0933631
0.0878373
0.0476098
0.0503446
0.0245019
0.0745884
0.086529
0.0468059
0.0499122
0.0433371
0.0464992
0.11265
0.070326
0.0903182
0.0803262
0.0942874
0.0284085
0.0654302
0.15955
0.130106
0.0301977
0.0711716
0.0303582
0.0644136
0.163212
0.15752
0.0653926
0.058907
0.138316
0.000870842
0.000870791
0.000873458
0.000873527
0.00087281
0.000869202
0.000873562
0.000871082
0.000866705
0.000865669
0.000876324
0.00087098
0.000868153
0.000869214
0.000878442
0.000887195
0.000872482
0.000877657
0.000867454
0.121755
0.1131
0.081328
0.101416
0.0628432
0.0568532
0.0888091
0.100875
0.0622609
0.103848
0.0813118
0.110887
0.10886
0.0639453
0.111041
0.0982176
0.110565
0.0449761
0.000947867
0.00096482
0.000971569
0.000934768
0.000953585
0.00097118
0.000977109
0.000977749
0.00096591
0.00102871
0.000994218
0.000981977
0.000994968
0.00100979
0.00102787
0.00102214
0.000857661
0.000843629
0.000842384
0.000865984
0.000880417
0.000858772
0.000851369
0.000856721
0.000826358
0.0008259
0.000874182
0.000832816
0.00087404
0.000844496
0.00087995
0.000853192
0.00085395
0.000853007
0.000876623
0.000860545
0.000852363
0.000889205
0.000869349
0.000865807
0.000845037
0.000898046
0.000899821
0.000864233
0.000874458
0.000971094
0.000852759
0.000922495
0.00090206
0.000400712
0.000860522
0.000896834
0.000872555
0.000896878
0.000908403
0.000734387
0.000871538
0.000858159
0.000839257
0.000686314
0.000886683
0.00089027
0.000884974
0.000879727
0.000879231
0.000880782
0.000880841
0.000900739
0.000891889
0.000887071
0.00089005
0.000891537
0.000883797
0.000872969
0.000886743
0.000884872
0.00089967
0.00088907
0.000895876
0.000893511
0.0848423
0.0849677
0.0805726
0.0538918
0.0683952
0.0599681
0.0808668
0.0697939
0.0721657
0.0460932
0.0476722
0.0706439
0.0649757
0.070712
0.0769891
0.10692
0.0793429
0.0905781
0.0879594
0.0928715
0.105529
0.089802
0.0935653
0.0882781
0.108568
0.0971067
0.105038
0.0899267
0.0486623
0.0488449
0.0486764
0.0822552
0.0951997
0.000908794
0.000909272
0.000896491
0.000946984
0.0009134
0.000909229
0.00086317
0.000886809
0.000887458
0.000879217
0.000882624
0.000895953
0.00089703
0.000892869
0.000877146
0.0709595
0.0505032
0.0457772
0.0433647
0.0804892
0.0448658
0.0623534
0.0763691
0.0905339
0.000882202
0.000889083
0.000883031
0.00088194
0.000893554
0.000881932
0.00088089
0.000887026
0.00088658
0.000874279
0.000870582
0.000854018
0.000868408
0.000886243
0.00088132
0.000868554
0.000844705
0.000853988
0.0008981
0.000886502
0.000885106
0.000833587
0.000724427
0.00103843
0.000653158
0.000755225
0.00103806
0.00193884
0.000859743
0.000706533
0.000537542
0.00074534
0.000588533
0.000757972
0.000825395
0.000431859
0.000622015
0.000796649
0.000814842
0.00179645
0.000859171
0.00202807
0.000822307
0.000840242
0.000784927
0.000900647
0.00095667
0.000864343
0.000905145
0.000938738
0.000878158
0.000839086
0.00080151
0.000805326
0.000801319
0.000901881
0.000890382
0.00092741
0.000916509
0.000885794
0.000883025
0.000890792
0.000865783
0.000935029
0.000808512
0.000896556
0.000931759
0.000802131
0.0106473
0.0168419
0.0162181
0.0132638
0.0055048
0.0155198
0.000527449
0.0013274
0.0158119
0.0068583
0.0204119
0.0113495
0.00963936
0.00140413
0.00233024
0.00779472
0.00239646
0.00358317
0.00135492
0.00215843
0.00240108
0.00305593
0.00218935
0.00827844
0.002202
0.0039914
0.00186977
0.00188122
0.00171433
0.00195443
0.00247978
0.00179555
0.00201952
0.00490664
0.00220355
0.0031334
0.00394365
0.00236585
0.00310382
0.00288478
0.00278835
0.00240488
0.0025572
0.00235012
0.000887213
0.000883045
0.000970795
0.00087944
0.000888917
0.00103771
0.000906235
0.000894163
0.000877449
0.0008952
0.00105748
0.000891558
0.000857009
0.000848349
0.000859764
0.000857263
0.000817025
0.000855511
0.000861936
0.000861963
0.000850249
0.000821764
0.000868334
0.000835386
0.000859419
0.000858014
0.0630777
0.0447349
0.0539762
0.0633203
0.0559072
0.0440625
0.0521564
0.054963
0.0562771
0.0679466
0.0715856
0.06554
0.066924
0.00850178
0.00479974
0.00557622
0.00522792
0.00464983
0.00839088
0.0023259
0.011241
0.00483848
0.00445056
0.00520119
0.0038583
0.00216991
0.00250175
0.0049447
0.00595204
0.00546788
0.0102583
0.00856822
0.0154874
0.00495344
0.00332605
0.0177765
0.0158861
0.0325361
0.0126638
0.0177666
0.0119578
0.00506566
0.0156692
0.00584803
0.00656371
0.0084963
0.00535777
0.00807705
0.00574069
0.0117255
0.00635282
0.00405759
0.00447726
0.0105689
0.005486
0.0046891
0.00567986
0.00701654
0.215143
0.208758
0.171504
0.196839
0.234619
0.231125
0.211487
0.27094
0.263439
0.272441
0.297441
0.00083805
0.000828694
0.000837034
0.000838972
0.000833455
0.000836924
0.000836123
0.000832994
0.000833299
0.000832092
0.00083663
0.000838604
0.000833716
0.000379461
0.00158523
0.000214373
0.00561219
0.00027725
0.0011616
0.000466857
0.000637084
0.00113043
0.00136797
0.000963937
0.00109071
0.0011096
0.00100551
0.00170026
0.000916351
0.0010861
0.00104036
0.00152046
0.000925903
0.000891163
0.000944911
0.000732623
0.000775107
0.000651765
0.000442313
0.000986765
0.000694275
0.000678475
0.000921896
0.000673613
0.000781173
0.000785468
0.000842614
0.000844905
0.00079545
0.000757574
0.000838945
0.000825734
0.000858026
0.000840486
0.000854521
0.000842717
0.000865006
0.00085583
0.000836602
0.000830219
0.000842543
0.000847622
0.000931803
0.000852463
0.000862734
0.000927892
0.000924449
0.000939339
0.000914078
0.000913581
0.000933295
0.00094239
0.0009258
0.000935454
0.000930382
0.000917648
0.000935201
0.000913844
0.000114571
0.00107178
0.00106657
0.000540974
0.000774881
0.000903972
0.000875911
0.000980491
0.000925319
0.000912202
0.000922793
0.000584312
8.10916e-05
0.000904289
0.00096135
0.000704377
0.00103548
0.000748779
0.00160578
0.00228704
0.0005759
0.00376694
0.00508526
0.00377196
0.00367636
0.00745095
0.00651179
0.00510558
0.00842442
0.00987683
0.00755378
0.0091927
0.0116264
0.00709248
0.00723877
0.00891355
0.0100612
0.00752819
0.00934394
0.0881098
0.214458
0.0634442
0.101037
0.0814776
0.172783
0.0347995
0.035938
0.173689
0.0334768
0.121018
0.238201
0.137691
0.108499
0.133249
0.0934154
0.0258625
0.081528
0.127981
0.0417788
0.171282
0.123741
0.0577126
0.0262282
0.0760751
0.150602
0.155408
0.00471339
0.0119741
0.012173
0.00116541
0.00478336
0.0708362
0.0461802
0.0604188
0.0100495
0.105996
0.0184929
0.0963474
0.169049
0.128659
0.082764
0.089051
0.176487
0.0794072
0.127202
0.043297
0.200365
0.170051
0.123897
0.144701
0.216572
0.208299
0.190918
0.193665
0.200417
0.200799
0.136088
0.166317
0.138253
0.136189
0.163141
0.268737
0.245963
0.184606
0.00881984
0.0123759
0.0173401
0.00964079
0.00725077
0.0104132
0.00461061
0.0125711
0.00444923
0.00946557
0.0191479
0.0172874
0.015627
0.0127481
0.0135335
0.0106155
0.0140949
0.00714629
0.0207845
0.0153947
0.0689742
0.0758337
0.0498954
0.0457411
0.0494428
0.0372328
0.0443427
0.0626959
0.0882159
0.0795237
0.0234796
0.0641907
0.0886046
0.0643736
0.0104565
0.000893075
0.00341406
0.000348813
0.000955149
0.000447721
0.00796162
0.000970956
0.00540754
0.00676853
0.00754287
0.0075682
0.00112553
0.00111056
0.000895586
0.00137134
0.00316851
0.00303753
0.092172
0.117185
0.109757
0.116245
0.13783
0.099278
0.169467
0.0244412
0.167164
0.0728614
0.0435751
0.014797
0.0410455
0.0538452
0.105041
0.0293625
0.112613
0.0798325
0.0352343
0.0433638
0.0124849
0.0399906
0.000784483
0.000815347
0.000515557
0.000560862
0.000792878
0.000792332
0.000789823
0.0007382
0.000781619
0.000868169
0.000726395
0.000775907
0.000727306
0.000711815
0.000726299
0.000652864
0.000730927
0.000788451
0.000783364
0.000727746
0.00143924
0.00429029
0.0111746
0.000920051
0.000276644
0.000630394
0.0118573
0.000134381
0.00338265
0.000804929
0.000821709
0.00476505
0.000758272
0.000811454
0.00518477
0.217133
0.369415
0.256074
0.397809
0.295939
0.433442
0.403835
0.185753
0.00379185
0.00239861
0.00730189
0.00617606
0.00646978
0.0017618
0.0031746
0.00187414
0.00640182
0.00492707
0.00186111
0.00467647
0.0227719
0.0321837
0.0987614
0.0674662
0.025917
0.0397617
0.0959447
0.0969788
0.0918889
0.0924719
0.0144634
0.0905755
0.094129
0.0188796
0.0728388
0.0452838
0.0463429
0.0583948
0.00077221
0.00169177
0.00199198
0.00244377
0.0022187
0.000732471
0.000985045
0.00179065
0.00163108
0.00208358
0.00296242
0.00139381
0.00121939
0.00224215
0.00118277
0.00262049
0.00310028
0.00156304
0.0229615
0.0233097
0.0325855
0.0329438
0.0301155
0.0309901
0.0182277
0.0222982
0.025814
0.0357015
0.0339532
0.0236892
0.0412106
0.0240374
0.0339813
0.0347167
0.0315121
0.0218429
0.0212754
0.0320606
0.0346856
0.0197442
0.000919406
0.000912787
0.000925102
0.000937021
0.000917337
0.000929071
0.000922126
0.000910918
0.000919349
0.000927108
0.000933077
0.000926786
0.000926963
0.000921266
0.000925943
0.000919285
0.506765
0.514948
0.413081
0.485128
0.366426
0.521985
0.292607
0.274126
0.203315
0.194644
0.195522
0.203145
0.421116
0.227108
0.257993
0.209855
0.294459
0.307082
0.0276591
0.0484953
0.0438262
0.0263588
0.0157441
0.00985356
0.0239867
0.0278297
0.0365887
0.0304762
0.0171137
0.0135203
0.0120594
0.0143996
0.0243411
0.0178458
0.00206639
0.00115191
0.000703456
0.000712636
0.00107515
0.000761065
0.000772328
0.00077338
0.000550916
0.000513361
0.00305032
0.00220747
0.00416334
0.00012167
0.000681639
0.000559051
0.000647201
0.000696459
0.00171385
0.00339935
0.051786
0.0520476
0.0475537
0.0312964
0.00974444
0.029529
0.00177901
0.0249539
0.0317989
0.0422739
0.0110522
0.00979479
0.0202591
0.0230043
0.0127651
0.0141048
0.0207778
0.0108971
0.0110065
0.0128941
0.0235352
0.0202082
0.00679031
0.0198193
0.00775962
0.00787509
0.00620255
0.0109412
0.068019
0.0567768
0.0411619
0.0625815
0.0748764
0.0293964
0.0220554
0.053786
0.0624123
0.0607013
0.0233766
0.0184397
0.0401664
0.0422976
0.0357646
0.0265646
0.0346869
0.0132557
0.011985
0.00148563
0.0126789
0.0120849
0.0140636
0.0135096
0.0100181
0.0115255
0.00590497
0.00505994
0.00681507
0.0043923
0.0155453
0.0153034
0.00883395
0.0133931
0.0121081
0.00944832
0.0143676
0.00749538
0.00391791