/*--------------------------------*- C++ -*----------------------------------*\
  =========                 |
  \\      /  F ield         | OpenFOAM: The Open Source CFD Toolbox
   \\    /   O peration     | Website:  https://openfoam.org
    \\  /    A nd           | Version:  10
     \\/     M anipulation  |
\*---------------------------------------------------------------------------*/
FoamFile
{
    format      ascii;
    class       volScalarField;
    location    "13";
    object      omega;
}
// * * * * * * * * * * * * * * * * * * * * * * * * * * * * * * * * * * * * * //

dimensions      [0 0 -1 0 0 0 0];

internalField   nonuniform List<scalar> 
75457
(
31.7824
33.3513
25.1583
19.8873
23.6784
28.9391
27.3298
28.9391
16.8226
16.7077
15.8098
19.0561
18.7982
16.9947
2.3853
2.37086
2.03196
2.38245
2.31479
2.04794
2.20459
2.23577
2.39636
2.36814
2.28714
2.55112
2.57898
2.30087
2.36048
2.53714
2.19781
2.50684
2.52765
2.05003
2.00279
2.10181
2.01932
2.59013
2.49232
2.03659
2.07973
2.01508
2.04194
2.66789
2.95343
2.38362
2.29275
2.66453
6.19598
3.51416
4.98294
5.66483
14.0085
4.76303
3.82553
4.03287
7.96078
8.91717
8.04631
15.5207
12.2076
6.66143
8.72983
7.18333
7.06461
7.99509
6.66606
8.28797
8.49928
13.9382
8.19777
14.5509
7.7682
7.7377
8.05874
7.14482
7.59179
13.3101
8.95608
6.48656
15.5166
10.149
10.2861
6.51761
5.81403
5.51457
6.33049
6.52207
11.5441
13.9338
6.7103
5.74542
11.4837
6.37349
5.69126
3.38355
3.68152
3.91587
24.0322
6.84964
8.40898
11.0312
22.1436
20.0098
39.5581
41.1432
20.8286
18.6977
20.4604
7.28058
5.60199
15.7095
18.4627
13.4205
5.3209
9.84882
22.1346
9.22393
8.60064
24.2149
6.0377
6.75722
6.70125
6.42597
7.53198
7.58627
18.1448
6.45172
11.4164
7.20155
6.85963
6.92546
6.56058
6.08016
3.33428
15.3506
7.04603
5.46153
5.72255
24.7082
4.41066
5.39851
6.65531
4.34106
4.56322
5.9797
7.10661
8.24926
17.9487
5.08787
31.7694
9.3049
5.12335
4.13791
8.99807
13.5112
4.31001
26.5154
5.30328
7.04626
27.4459
5.37369
8.26904
6.04704
6.26157
6.5338
6.22555
6.40111
5.79487
5.7936
6.07786
6.29571
6.02358
6.1451
5.96109
5.82218
8.69268
7.92846
7.5912
11.6367
4.70496
22.3351
3.86793
12.1253
28.1736
5.16525
3.80965
9.60947
17.8772
39.4897
7.89453
7.89693
8.53903
13.0046
6.35308
24.6444
3.98986
4.58012
4.0463
4.38331
3.88537
7.43335
8.63264
12.8405
6.19983
7.14548
12.8333
11.7255
12.6078
12.731
11.1531
11.4353
23.6345
26.3731
9.57519
11.0159
25.26
11.0461
27.6416
25.7805
26.4414
8.52552
12.2387
23.3463
10.6751
11.4284
27.7705
13.1585
7.87446
19.9885
5.0446
4.98384
19.7241
8.34626
9.53373
7.22925
9.32778
4.49644
4.79207
5.03394
5.28778
9.06379
21.5874
7.18391
16.5614
10.1477
6.97493
7.33301
10.9267
24.7433
10.4994
21.8711
9.92346
19.6758
8.03774
14.0825
6.26463
4.50945
5.35659
3.24538
3.67201
4.06768
4.50754
6.06539
10.2304
18.5608
12.2922
30.9621
17.6707
20.4629
27.3265
17.476
6.10616
6.38378
10.3237
6.27776
10.6969
11.4831
17.4696
10.2133
9.50253
16.2171
9.77399
15.3664
7.43407
14.725
6.80275
4.18238
4.16589
5.45829
5.04079
5.45737
4.90216
17.4917
15.6246
24.2153
15.9553
8.56616
8.51438
22.5942
8.24822
8.57713
21.7116
3.05505
3.16983
1.82053
21.7116
2.79803
2.53697
21.7116
1.7416
2.85272
4.38465
2.64169
10.5232
11.4467
13.0464
11.2424
11.6891
22.387
10.5035
6.42402
7.80063
13.2504
22.387
4.55056
4.64414
5.18781
8.10324
12.9752
10.9646
9.70183
11.2788
25.9681
5.70365
5.86298
8.75999
7.9817
31.3427
9.95841
8.41585
29.831
6.41715
6.00641
18.5105
6.38145
11.6332
7.81611
21.8425
6.13896
5.93115
8.30799
6.46641
4.71036
9.53768
8.1631
9.99224
28.33
8.25222
5.45224
15.841
22.8258
16.2971
22.2466
4.29404
4.02762
5.27568
4.94865
7.35664
6.30689
10.9685
6.12631
6.7082
8.60889
23.1026
12.5703
11.3742
7.55349
18.7012
6.7571
8.19631
7.87488
18.8498
18.6736
18.1896
4.14523
8.67017
8.79075
4.91637
4.33944
8.31864
4.52217
4.57189
4.42176
4.41206
4.58831
4.61274
4.511
4.56849
4.59937
4.64412
4.52302
4.43183
4.51787
4.48567
4.44989
4.558
4.44355
4.41625
4.36168
4.36022
4.43966
4.3764
4.45569
4.38778
4.49358
4.47632
4.36103
4.42477
4.40905
4.46041
4.44885
4.25694
4.32161
4.33755
4.37342
4.31385
4.35032
4.38632
4.43512
4.26121
4.30492
4.26098
4.25528
4.32368
4.37082
4.33762
4.4199
4.34364
4.36805
4.33976
4.37205
4.32892
4.35954
3.73455
2.84529
2.86021
2.85161
2.84357
3.54126
2.86987
2.85397
2.73628
3.81338
2.69371
2.78345
2.78985
2.8324
2.65828
3.41907
29.1733
16.9399
16.3356
16.9399
13.0221
13.0701
13.2556
14.9706
13.2778
13.6656
28.7114
31.4025
27.3226
18.3917
13.9288
11.3699
3.57207
3.51451
3.77464
3.9143
3.71149
3.63007
3.56036
3.51341
3.60199
3.63228
3.66283
3.85467
3.82713
3.6039
4.68857
3.72888
3.64809
3.65464
4.55633
4.61347
4.57966
4.50873
4.47825
4.51585
4.52819
4.54447
4.54308
4.52532
4.5572
4.62789
4.54494
4.58501
4.60735
4.62453
5.83205
5.59734
5.91723
5.59375
5.36356
6.01472
6.36211
6.03734
5.86439
6.03774
5.88112
5.75848
6.01492
5.74026
5.81266
6.24733
6.3415
4.7151
4.86907
4.67463
4.70572
4.62811
4.59607
4.68395
4.80712
4.60643
4.50343
4.72711
4.55963
4.49693
4.50966
4.57893
4.4456
4.62312
4.31339
3.81572
4.16773
4.79466
3.5671
4.3683
4.11232
4.41776
3.76226
3.57153
4.00148
4.95384
4.79098
4.00304
4.30554
4.11848
4.97805
5.10848
2.18416
2.15305
2.1926
2.40059
2.06243
2.4908
2.19232
2.16216
2.16869
2.59767
2.26352
2.15772
2.19678
2.11229
2.61274
2.57475
2.82093
2.57061
2.89497
2.87881
2.88916
2.6562
2.58927
2.92983
2.94168
2.8992
2.62871
2.49528
2.49925
2.7915
2.64238
2.76624
4.25314
4.271
4.29473
4.49693
4.5456
4.29124
4.29506
4.49615
4.42528
4.47027
4.27074
4.53085
3.93042
3.37053
4.255
3.21552
4.17388
3.82245
4.10254
4.07009
4.09059
2.92924
2.81452
2.92666
3.19303
3.18789
2.94417
3.20633
1.98237
2.51028
1.92867
2.35502
3.43047
3.11251
4.60891
2.92054
2.86534
2.39727
2.21156
2.04008
3.85183
2.18996
2.32055
2.56898
3.64828
3.628
3.65236
3.68624
3.80712
3.70292
3.65007
3.60366
3.58964
3.67852
3.70884
3.68148
3.69676
3.76462
3.76905
3.68058
3.64462
3.71868
3.592
2.48918
2.4643
2.20212
2.7864
2.42554
2.70822
2.59852
2.29126
2.46471
2.164
2.66433
2.543
2.43112
2.44319
2.92844
2.70356
2.79504
2.88299
2.71635
2.79902
2.58888
2.50602
2.58329
2.4084
2.45503
2.70889
2.55807
2.49599
2.5406
2.33118
2.39172
2.52418
5.00854
6.22123
6.36716
3.93802
3.94493
5.39382
4.69345
3.34398
3.66368
6.91268
5.56063
5.34012
5.35497
5.81666
5.84159
5.94315
6.56491
5.9144
6.4792
5.3814
5.58558
6.37903
8.17237
8.01717
6.78725
7.74719
7.73593
6.75564
5.78703
6.56635
6.53975
6.27046
2.73708
2.77482
3.00948
2.86983
2.87191
2.66872
2.80457
2.82981
2.81335
3.49644
3.89435
4.3655
2.62152
3.81778
5.18353
3.56929
4.42415
2.10338
2.91288
4.40795
6.09703
3.03525
3.36277
8.1835
5.91916
3.68113
7.101
4.02758
4.67225
4.22969
4.44669
5.50779
5.87308
6.68579
7.47291
7.75864
7.88385
6.34241
7.98795
7.0932
7.85695
2.08154
2.13842
1.8685
1.89852
1.95316
1.90599
2.02863
2.05506
2.48829
1.99995
2.1767
2.24363
1.86212
1.93735
2.31096
1.92922
2.16948
2.13745
2.05437
2.45681
2.54016
2.00799
2.5898
2.31775
2.7706
2.34229
2.31634
2.9766
2.81462
2.20944
2.56129
2.80835
2.62336
2.59049
2.91689
2.22878
2.40136
3.12087
2.66625
2.30388
2.07763
2.10507
2.76649
3.54409
2.25695
2.32651
2.90933
3.29273
2.2706
2.25277
2.52528
2.24062
2.24875
2.72363
2.81016
3.23889
2.3003
2.27395
2.45463
3.27724
2.29943
2.26288
2.51908
2.21466
3.95615
5.14106
2.10329
2.24708
2.46171
2.72553
2.21941
2.32847
2.70942
3.43104
4.09555
3.66479
2.34887
2.32857
2.18141
2.7448
2.35728
2.7131
2.69425
2.49233
2.55636
2.54005
2.43907
2.35869
2.49
2.48658
2.56589
2.50735
2.36131
2.59026
2.65304
4.44262
4.73502
4.84273
4.53122
4.68491
4.73712
4.84731
4.60655
4.6963
4.80871
3.04085
2.68257
3.0507
3.41819
2.53286
2.51
3.3683
4.09542
2.60337
3.33734
3.1906
3.20015
3.60138
2.58858
3.48174
3.20383
2.51545
5.74751
6.06344
5.90293
6.28355
5.979
5.67629
6.21225
5.91118
5.74853
5.71205
5.85026
5.73152
6.02398
5.72074
6.10229
5.59488
5.6914
5.50284
5.66594
5.53423
4.76874
4.83277
4.74952
4.77862
5.02329
5.15322
5.60179
4.91708
4.92497
4.79613
5.47929
5.53099
4.75931
4.86534
5.09291
5.81783
9.46633
8.08251
7.2773
7.85827
11.9375
9.45896
12.0793
11.739
9.78688
9.51454
11.8846
10.7557
10.4588
2.87575
3.09492
2.90348
2.74366
2.66482
2.71251
3.03123
2.92465
2.74429
2.77644
2.51072
2.79917
3.85311
4.25209
3.98689
3.89805
4.18603
4.09877
3.76604
3.73513
3.7023
3.77213
3.79826
3.7679
3.85277
3.82537
3.91846
3.85064
4.0241
3.85525
3.84857
3.9739
3.95489
3.73473
3.73029
3.94943
2.94753
3.39982
3.77272
3.49765
2.7788
2.78383
3.36443
2.64228
2.9813
2.93697
2.72422
2.70817
2.94876
2.7649
5.38623
5.5871
5.61847
5.39
5.42214
5.5329
5.06938
4.73959
5.17851
5.1272
5.222
4.95196
5.69918
5.28229
5.58845
5.5365
4.49327
4.91465
4.63097
4.402
4.39279
4.47879
4.41387
4.38355
4.41211
4.50468
4.58587
4.4785
4.55861
4.56658
4.8015
4.64194
13.6584
11.8841
12.7352
12.1432
14.4393
11.6213
5.77557
6.34213
5.94097
6.33196
6.12005
6.8345
8.79184
10.8155
11.1661
8.43617
10.3286
10.4659
6.77722
10.0169
6.67517
7.63114
7.34508
7.07511
6.8377
7.15426
7.73165
7.3761
6.90115
7.31413
7.38471
7.05752
7.49295
6.96566
7.13371
5.01047
5.33167
5.31104
5.34312
5.95709
6.32563
7.19876
6.07741
7.53222
7.96511
7.52209
6.71965
8.53
9.04158
3.73069
4.1291
3.62408
3.71554
3.59303
3.80337
3.42159
3.236
3.94914
3.475
3.61092
3.22853
3.38633
3.21881
3.24402
3.19483
2.38585
2.42997
2.32568
2.35123
3.59428
3.68085
2.19137
2.86752
2.89281
2.19467
3.49378
3.29364
4.10454
3.23217
3.23968
3.75514
3.64564
4.37082
4.49865
2.6628
3.30673
2.99527
2.85676
2.7514
3.83039
3.12489
3.35132
3.59079
3.40645
2.59421
2.63026
2.88935
2.66985
3.55979
3.33296
2.77278
3.10159
2.87123
2.98237
2.63088
2.74307
3.09423
2.79764
2.77498
8.25821
7.18735
7.20051
8.1262
8.51356
7.54494
7.38027
7.57473
7.54188
7.46924
7.61203
7.44466
8.21704
7.98514
8.07306
8.3263
8.03945
7.83593
7.39818
7.85684
3.11741
3.07858
3.04192
3.01163
3.04509
3.20187
2.96187
3.04543
3.18125
3.05409
3.02218
3.01614
4.79016
7.06564
24.4013
5.40897
18.6973
6.38794
11.4187
20.8163
22.4048
5.1446
11.5591
14.3243
24.0017
6.66008
11.4122
3.96785
8.36967
5.27934
4.65235
8.08648
9.50107
7.46893
4.59588
3.90164
3.82582
12.339
14.389
13.6337
15.2064
3.78402
3.94446
3.79476
3.6431
3.76666
5.60678
6.24122
5.2083
1.98903
2.29833
1.83888
1.99146
1.85462
1.79715
1.76225
1.85128
1.80871
1.81475
1.90829
1.83823
1.82768
1.82238
1.83007
1.81998
5.54369
5.36962
6.05201
5.77375
10.1487
8.30967
5.06534
6.43986
7.97409
7.59809
8.40879
7.46033
3.82546
11.6764
13.6686
9.72858
12.5167
4.57596
2.80579
9.66276
2.88179
8.4677
16.6685
4.75746
8.12699
4.07566
9.91097
18.8629
10.0696
2.71926
4.39683
5.16896
19.8216
4.49262
6.58691
8.02248
12.6783
4.14908
8.05078
3.71622
21.1919
5.85415
7.1014
25.3501
5.36828
8.46999
7.77693
7.7572
16.3017
5.64695
6.61148
11.2274
15.2477
4.49898
3.98868
8.70881
3.87888
8.84749
16.2144
8.67293
3.50479
3.91057
15.0584
9.39586
3.86073
3.53494
4.36666
3.65115
2.61128
3.07019
2.77455
3.73125
3.87048
2.34274
2.47361
2.49868
3.4526
4.27071
2.84747
3.08176
2.4719
3.39544
3.54083
4.34644
3.67821
4.09646
4.13243
3.91523
3.95244
4.68076
2.78973
3.62937
4.25717
3.98371
5.96267
8.53925
5.25986
11.8938
11.5771
10.9846
10.764
12.2761
10.6202
10.1887
10.7767
11.1094
11.0526
12.3951
12.9157
10.2055
10.4343
10.8136
11.2202
10.9094
12.3856
11.6153
10.8029
8.15305
10.1422
6.9573
6.78738
10.9673
10.9972
18.244
15.9114
6.62403
7.021
8.07969
10.392
11.4682
15.5191
8.1459
10.1745
6.52882
6.6077
7.37378
5.18957
4.47467
4.38817
4.05309
12.1001
16.055
10.3543
13.1141
4.96241
4.45712
11.8239
7.49503
4.77099
7.82592
14.1818
8.7315
6.58723
11.6734
6.6268
11.7742
2.3043
2.27423
2.71085
2.34209
2.67586
9.0712
11.564
5.05749
5.47246
3.79827
3.47734
2.69833
3.50334
3.27599
6.38314
3.15554
2.59623
2.33865
3.20993
6.54512
6.00997
6.43708
6.60868
6.87237
8.55936
6.83826
6.46724
6.16243
8.241
9.67611
11.487
10.88
7.54176
7.04415
8.36339
24.4815
22.835
24.0492
26.0454
30.4433
27.481
30.3362
43.4264
40.9922
36.5484
32.305
31.6982
44.7038
33.7532
32.5197
31.2405
38.902
38.7573
39.4794
29.3603
7.95414
9.57971
7.82189
10.1033
6.26178
6.67531
4.25206
5.2721
11.934
8.1333
16.9913
9.28779
4.66857
4.44594
14.0555
11.0411
16.9463
8.78603
19.0059
6.53054
30.6399
37.5216
41.4723
55.8866
42.0922
29.8298
24.6174
39.509
47.1111
41.9993
45.3371
35.6073
62.5729
41.0425
79.0119
80.9933
55.2753
3.27998
12.0086
6.9514
31.9562
6.07205
5.83304
8.48482
7.70734
39.4464
7.53172
2.02185
21.2591
12.1226
11.5938
15.2064
14.543
13.1314
11.6023
10.9358
10.6825
14.0156
15.1394
12.5951
12.9306
12.8396
14.186
11.5743
12.8931
12.8146
12.0091
15.4355
11.2155
11.3256
5.79988
5.68901
5.48561
5.62329
6.31534
5.86446
6.30263
5.73476
5.51062
5.63016
5.58554
5.46798
5.40912
5.36151
5.82185
5.67849
5.59403
5.49472
4.82517
5.26164
4.81305
4.98601
5.09299
6.31147
4.777
4.95671
6.08221
6.95832
5.13587
4.85097
5.07806
5.91344
5.16169
6.01331
6.4319
6.43328
6.07488
5.7085
6.54567
5.57302
6.33675
6.23284
6.35314
5.61223
6.23928
6.21948
6.25682
3.13718
3.21049
3.16857
3.30293
3.07684
3.03359
3.15844
3.13273
3.4711
3.62179
3.12766
3.14431
3.18935
3.28879
3.49457
3.4235
7.12322
7.17634
7.31259
7.12084
7.08574
8.11466
6.97137
7.06755
8.47863
7.27851
6.59591
6.42327
7.12249
7.8561
7.6887
7.22409
7.25954
21.8374
21.9963
16.7873
18.1162
19.6366
21.9347
25.1975
25.5058
18.6401
19.7753
25.5624
30.1077
24.8678
26.6352
23.7592
25.1519
24.129
7.31068
5.83302
5.39764
7.87556
5.24004
14.0503
20.5805
5.35169
11.37
11.7808
8.96612
10.2177
11.6144
5.82416
3.38278
10.1865
22.5995
4.09906
8.27254
6.79222
5.63524
4.63688
4.46879
6.87266
6.56113
5.27368
5.16393
4.92542
4.81638
4.77735
5.00012
4.65063
4.49244
4.85788
4.59217
4.63845
4.86059
5.25895
4.68437
4.68223
3.88597
3.55234
3.25748
3.53718
4.12663
3.38633
3.31788
3.34043
4.34564
3.31024
3.46339
3.63311
3.75696
3.2589
3.18767
3.13329
5.40619
4.42724
4.82031
5.70416
4.73066
4.26034
8.88567
5.77776
6.16281
6.14065
14.138
8.11252
4.96706
8.98123
4.2953
7.24635
8.90863
13.8353
16.3778
10.0572
14.5839
16.9058
10.705
15.3607
11.2521
7.86677
5.8488
4.55618
14.6152
9.74552
11.0938
3.04264
4.35818
11.4326
3.90271
10.3811
9.47069
3.80679
3.50745
3.29003
8.07768
5.56895
5.52788
5.485
6.62195
5.60294
5.57808
6.45152
5.68574
5.60848
6.4321
5.63341
5.37777
7.52795
6.80388
10.1518
6.11639
6.93244
8.57389
10.4426
9.06224
7.85338
6.97412
5.55975
4.42943
4.51626
4.69936
8.3903
6.95629
7.25592
6.89713
6.50374
4.19302
6.17911
7.61542
7.6942
18.222
17.6267
6.37212
6.44769
6.9071
20.6374
8.4466
12.1573
7.47999
3.31861
9.02388
14.7685
6.12541
4.81934
4.04673
9.65072
8.41979
14.27
16.3372
6.686
9.11332
9.9781
4.14764
6.11227
5.66748
4.40282
4.38781
9.54154
8.63204
10.0511
15.7424
6.93501
10.2867
4.41477
4.10957
7.73636
4.26796
4.41473
4.46567
3.95617
4.49397
3.94211
3.73959
3.75486
4.6187
3.65057
3.52215
3.81214
3.66952
3.42069
3.34864
3.4618
3.39151
3.36404
1.96657
2.00377
2.02144
1.99984
1.98462
2.11844
1.95068
1.94666
1.98645
1.96071
1.94148
2.09833
1.98237
2.05256
1.95877
2.0471
1.97472
1.98386
2.01651
2.32199
2.1544
1.98327
2.5048
2.21732
2.1569
2.14408
1.84645
1.6786
1.62159
1.8758
2.00619
1.60722
1.59736
1.77644
1.77973
1.59544
1.70396
1.6704
1.67246
1.67977
7.48511
7.99756
9.45447
10.8235
8.2766
10.7845
7.93804
6.90398
9.35069
7.93972
7.15927
7.40688
6.90775
6.4324
9.38233
7.4893
8.36884
3.94712
3.46526
3.95844
7.66231
6.33401
3.4681
3.75849
3.74565
3.30503
4.62825
5.17364
7.27345
3.23901
3.15295
5.28428
6.66898
2.68761
2.83763
2.82567
2.8015
3.06794
4.00624
3.03329
9.83293
7.59305
3.49737
3.25055
4.88909
5.65922
8.31383
6.08235
6.31926
7.17878
8.02479
15.2614
21.064
10.7684
20.1592
4.42551
7.46686
4.21128
1.82525
1.77621
1.83045
1.78128
1.69832
1.84326
1.79077
1.76239
1.92072
2.00552
1.87987
1.83501
1.77738
1.84463
3.23051
3.20388
2.87544
2.84549
4.11557
2.64079
2.8243
3.82852
4.47706
3.85673
4.76403
3.5232
3.16745
3.95904
2.54527
8.83393
5.25857
19.3013
19.3013
4.12953
19.3013
6.24508
5.73576
10.1334
6.47493
7.54934
5.81051
4.76318
4.46571
7.38698
4.82448
4.84536
6.06664
20.3901
24.2413
25.617
20.3906
21.2809
21.4985
23.7107
19.6309
23.4759
19.5386
10.0116
10.6772
7.67617
11.8412
4.29921
3.90499
3.50633
4.80319
7.17069
8.7721
10.4673
10.0293
8.79149
3.69449
3.86617
2.7718
7.99207
9.52826
3.86088
3.75903
3.6527
4.05599
4.57919
6.44168
4.60717
4.64455
5.46079
12.2309
4.96951
3.62378
4.08663
12.2309
7.88877
14.3989
4.89534
3.36093
3.5093
5.91146
5.3018
3.77858
7.99634
7.87182
7.45925
8.00131
7.59597
7.28371
7.6694
7.53805
7.09081
7.45185
7.15753
7.50121
7.78013
7.5292
7.15651
6.78232
7.02034
6.74286
7.22912
7.90182
7.871
7.48298
7.73548
7.32891
7.24135
6.58404
6.07666
6.39389
6.11349
7.2462
7.28756
8.23228
7.84887
6.0436
6.04581
6.18739
7.1798
29.2614
29.9927
24.9819
23.6181
38.8025
31.9794
36.7127
30.9435
29.0111
45.8811
35.6809
37.5551
37.195
44.0151
58.1718
55.9109
4.68262
4.884
4.87896
4.66041
4.6223
4.66645
4.69043
4.61094
4.81162
4.80587
4.55126
4.71973
4.56274
5.44925
5.18822
5.48988
5.47011
5.38884
5.09828
5.76448
5.53655
5.7145
5.47363
5.63299
5.75676
5.34384
5.49737
5.36437
4.87815
4.95082
4.75402
4.8272
5.15766
5.06753
4.73652
4.76263
5.10696
4.92074
5.00971
5.04397
4.93452
4.95615
5.09082
5.26714
9.95972
9.9125
9.72953
9.10418
9.25617
9.61264
8.9457
8.78791
9.23007
9.37273
11.2155
11.0222
9.50608
9.18855
9.3242
9.40437
10.8554
9.75808
9.91594
9.73115
8.26668
8.09179
7.69813
7.30721
7.9354
7.74616
8.58338
7.90497
8.83363
6.6199
7.07181
8.65489
7.37907
8.1477
8.66962
9.65472
8.9546
8.81676
9.83676
10.0122
10.4352
9.35225
9.73356
10.721
9.56554
11.4343
12.1842
11.5512
9.79203
8.97545
10.3459
12.5584
11.0698
12.842
11.9787
12.1893
10.145
13.5952
12.1921
11.1583
10.7141
11.5615
12.418
9.96791
9.72742
9.56493
10.3407
11.1158
3.34358
3.09382
3.04425
3.01306
3.48165
3.41564
3.37692
3.51698
3.56943
9.1779
9.57379
8.48715
8.52246
9.1533
8.35614
8.26581
8.70289
7.93644
7.77693
7.86322
7.82759
8.09751
8.87792
8.34356
7.89996
8.19057
8.37824
8.70937
9.2387
7.88249
8.60746
3.7537
3.80629
3.74741
3.75935
3.77614
3.91567
3.81183
3.64847
3.79748
3.70436
3.79635
3.66905
3.80954
3.62686
3.63795
3.67165
3.70925
3.68703
3.70428
3.68769
4.98097
4.7697
4.87115
4.67853
5.0159
4.76773
4.84544
4.94325
4.87548
4.78261
4.81104
4.62379
4.6966
4.74002
4.69945
4.93246
4.83803
4.95219
4.63376
4.82181
4.68803
4.92171
4.65444
4.51057
4.59799
4.6196
2.8163
3.00711
3.0094
2.85717
2.65742
2.71246
2.48397
2.5946
2.98161
2.55804
3.04792
2.76095
2.70042
2.42677
2.47039
2.70502
2.49785
2.49505
2.4863
2.50327
2.51958
2.56958
2.56462
2.7126
2.50216
2.57021
3.23589
3.28585
3.3735
3.35892
3.1533
3.18542
3.20595
3.67733
4.12284
3.66171
3.59096
3.22956
3.27968
3.30422
3.36665
3.33447
3.48243
3.28488
4.22726
4.3065
4.48163
4.25619
4.16618
4.3991
4.42136
4.13348
4.1493
4.2546
4.34135
4.15319
4.08998
6.45811
6.97872
6.53068
6.21897
6.54015
6.93271
7.44603
6.80008
6.75364
6.42555
6.58558
6.9969
6.63802
3.5873
3.10551
3.42634
3.53483
3.34398
3.19152
3.36454
3.40567
3.38619
3.66519
3.68192
3.54715
3.65136
2.51225
2.24466
2.25226
2.2609
2.26868
2.47665
2.36895
2.49269
2.27611
2.26306
2.3368
2.36006
2.27023
2.27356
2.31844
2.29268
2.23252
2.2846
2.37433
2.39828
2.28865
2.30749
2.50236
2.48557
2.75693
2.36327
2.44831
2.46407
2.35371
2.45468
2.38633
2.55745
2.53727
2.48567
2.47275
2.50595
2.5641
2.54626
2.4659
2.44343
2.5249
2.59395
2.50287
2.53051
2.60727
5.08134
5.35197
5.67417
5.20913
5.27237
5.32018
5.39237
4.93969
5.08349
5.28625
4.87282
4.74852
4.65749
4.92115
5.10744
5.30398
4.85209
5.10102
4.93907
5.15656
5.17662
4.87027
4.88452
5.01101
5.56001
5.65736
5.71821
8.26442
5.703
5.34461
5.44791
5.44108
5.54647
5.6735
4.60318
5.02781
5.21232
4.88411
5.94423
4.50125
4.87039
4.94528
5.39311
4.82488
5.09827
4.83063
4.8727
4.92819
4.69447
4.63523
4.67219
4.85708
5.11097
5.02012
5.21832
4.82743
5.06443
4.50775
4.57152
4.32455
4.36033
4.51738
4.65154
4.63362
4.67565
4.9717
4.97525
4.66068
4.58117
4.72056
4.82856
4.76551
4.67388
4.83084
4.82158
4.76767
17.117
15.8003
19.7464
14.2169
14.5045
18.3712
19.8418
16.3823
18.5642
17.3098
14.4903
18.6674
15.6225
4.13684
4.2068
3.92838
4.01674
4.06988
3.86939
3.82644
3.9994
4.02248
3.92385
3.86788
4.218
4.11902
3.84466
4.06273
4.03076
4.50604
4.07116
4.63733
4.43241
4.02701
2.41094
2.42416
2.4085
2.45896
2.4507
2.42553
2.49951
2.50267
2.43862
2.37138
2.52461
2.55192
2.374
2.42871
2.38505
2.43373
2.47403
2.48043
4.44785
5.41538
4.37423
4.70225
4.75088
5.08389
3.82076
3.67549
5.09069
3.82162
4.40934
5.56102
4.56759
4.36776
4.36521
4.10016
3.74977
4.3601
4.72572
3.71886
4.91011
4.37456
3.95042
3.70867
4.26417
4.86173
4.9089
1.77611
1.84362
1.8603
1.74604
1.86188
7.87213
8.02891
8.29324
6.25478
9.88683
6.04881
11.2175
13.2607
14.6309
12.0118
16.0373
12.6872
11.2392
13.5552
7.59931
5.86345
5.71012
6.0521
5.92248
4.67416
4.11134
4.56254
5.45108
4.81055
4.05713
3.74501
5.41671
5.95424
3.83898
3.85182
4.17118
4.35127
4.28331
4.90717
6.31918
7.29034
6.55458
9.72039
12.7216
2.29204
6.90207
3.41367
4.40753
19.0179
30.9972
21.0117
20.9842
9.81751
4.5656
7.9551
19.7776
18.3081
6.91064
4.92093
5.17248
4.25024
4.06999
4.2048
3.88365
3.99961
4.53046
5.62988
5.26111
3.59164
4.35576
5.14717
4.46718
5.16825
4.01803
4.87063
4.72478
3.70876
3.77338
4.64366
3.47378
4.57867
5.02857
5.37613
5.1199
3.54
3.42369
3.56708
3.61804
4.08677
4.03969
9.17968
10.0056
9.79253
9.28951
9.58526
9.34892
11.575
9.04972
10.0799
10.6792
6.69122
6.58917
6.81339
7.79201
10.0535
7.76018
10.2769
10.0842
6.72586
7.93501
5.08256
6.8232
3.63484
3.62646
3.60385
3.56788
3.57216
3.50747
3.5866
3.62007
3.59155
3.59554
3.53955
3.49445
3.49007
3.59985
3.5769
3.52842
3.55559
3.52793
3.44565
3.49321
5.72753
5.9325
7.04258
4.65039
5.61794
4.74817
7.14457
5.09413
5.48695
4.46123
4.52697
5.44253
4.6769
4.52417
4.87115
8.77038
8.62596
8.52184
9.20241
9.99652
8.13256
9.5293
9.25352
3.03766
3.15456
3.12159
3.14894
3.10822
3.10245
3.1413
3.22728
3.06598
3.0653
3.16989
3.08396
3.5765
3.67196
9.84868
5.41063
3.40677
4.04394
9.33977
6.95615
9.58074
10.067
15.223
7.52016
11.5426
17.3749
7.17503
4.4704
4.45515
4.89024
2.99317
3.04035
3.00599
3.01992
3.08376
3.0381
2.99861
3.1635
3.08327
3.07602
3.12709
3.18552
3.05378
3.0388
3.06774
3.17464
3.22328
3.1035
1.88257
1.88444
2.0322
2.07491
1.94513
2.02898
1.86507
1.88352
1.93152
2.14797
2.00776
1.92068
2.34868
1.95432
2.00472
2.01833
2.02588
1.91408
1.9203
2.0854
2.02181
1.90141
15.8269
14.4477
16.3191
18.9279
15.1689
18.0757
15.91
14.3575
17.0395
18.8473
18.4902
17.045
16.7715
15.648
17.0035
15.2601
6.49429
6.35046
6.28598
6.89429
5.94244
5.7777
6.5362
5.72343
5.32335
5.49371
5.77408
5.65692
5.66671
5.29153
5.4358
5.74024
5.43655
5.43116
2.26424
2.70762
2.66809
2.28833
2.14096
2.04646
2.42579
2.50533
2.39335
2.2734
2.17319
2.202
2.11396
2.06467
2.20348
2.11003
3.89895
3.87012
3.94749
3.88851
3.73631
3.89326
3.87456
3.88757
3.9106
3.8984
3.86166
3.91471
3.90207
3.87545
3.82563
3.81861
3.78626
3.78382
3.73196
3.74152
8.81393
8.61452
7.61913
6.60178
5.02015
7.1407
5.75283
6.24792
6.69257
7.94195
5.08554
4.8493
5.85991
6.06278
5.33754
5.61521
3.84176
3.97196
3.44049
3.51047
3.13537
3.53201
2.83911
3.38817
2.86886
2.66079
2.80395
2.661
3.5671
3.01126
2.51653
3.24086
3.95902
2.13835
2.07537
3.45376
3.2057
2.9622
2.02203
1.94488
2.67672
3.12973
2.27011
2.17093
2.6565
2.82401
2.83306
2.84083
3.06347
3.10994
3.06146
3.12498
2.80588
2.87877
2.68945
2.7624
2.7893
2.74421
2.97465
2.97076
2.72207
2.86907
2.94167
3.80048
4.08621
3.41322
3.12963
4.58492
4.17013
3.5131
3.51048
3.95637
3.10973
3.15567
3.06188
3.08061
3.22066
3.24674
3.09388
3.20575
3.16718
3.65487
3.36941
3.21309
3.23811
3.30363
3.31242
3.27123
3.20533
3.32654
3.3067
3.24612
3.32197
3.23767
3.25254
5.93076
5.63133
5.69563
5.83238
5.56995
5.75194
5.85374
5.77301
5.68746
5.70685
5.68597
5.52787
5.51033
5.51616
13.3022
13.6481
17.8938
17.4839
18.3761
18.4896
13.2147
11.8369
15.4288
16.3647
13.5947
16.5859
14.4316
15.0422
1.89089
1.9128
1.9328
1.94799
2.26975
2.43989
2.24517
2.37846
1.92864
2.14271
2.12211
2.11043
2.22985
2.08665
1.98427
4.83975
5.65611
3.89767
2.39536
4.20864
5.39695
5.94314
3.60453
3.98473
3.62936
3.67883
4.01238
3.69756
3.75451
3.62032
3.47513
3.74553
4.90598
4.86416
4.21743
4.08792
4.06051
3.74051
4.2713
4.82046
3.77367
3.79394
4.04951
3.7495
3.64922
3.72427
3.56011
3.50963
3.53584
3.6792
3.59765
3.5576
3.61902
3.42121
2.78689
2.8263
3.08596
3.14774
3.28091
3.82389
2.91251
2.79359
2.77377
3.2212
2.84765
2.81469
3.65174
3.50732
3.21007
2.89289
3.43057
2.59952
2.43266
3.5978
3.41379
3.40766
3.17054
3.65433
2.37697
3.04637
2.49632
3.45183
3.72038
3.18936
3.50726
3.83908
4.04506
3.46227
4.01702
3.80348
4.1599
3.95431
4.25822
4.21425
4.11555
3.44284
4.02288
3.21
3.25484
3.92905
3.70603
3.57074
3.3996
4.07869
4.11465
4.17858
4.11239
3.98015
4.09483
3.99697
4.03097
4.03752
4.0212
3.95713
3.97908
3.97736
3.92929
4.03138
4.03873
3.96831
3.93675
3.94626
3.91811
6.89693
6.59658
5.31632
5.70669
7.32312
6.25168
5.53535
6.56142
4.93878
5.05763
5.02414
6.70989
7.84272
7.43156
7.49967
7.55285
7.6672
7.45853
8.02049
7.87458
7.33377
7.36768
7.05199
7.10803
7.03889
7.9575
7.6551
2.26515
2.33532
2.28405
2.26278
3.01395
2.99284
2.93105
2.78826
2.80448
2.44117
2.63348
2.19213
2.2152
2.56175
2.54929
2.41754
2.85333
2.84933
3.25466
3.04889
2.90182
3.7979
3.76091
4.26051
4.07001
3.49634
3.9104
3.64555
3.98888
6.92687
6.12794
6.26972
5.8933
6.45736
7.93788
5.98925
6.07046
5.90508
6.11926
6.60201
8.08545
6.13369
14.744
15.6249
15.4318
12.8301
13.8525
13.0543
12.2025
9.25457
9.97062
15.6511
14.9544
16.172
16.3749
9.9802
9.44735
13.8828
11.6407
9.98094
11.1942
13.9439
4.75999
4.73874
4.63286
4.71651
4.53777
4.46951
4.94816
4.59098
4.65661
4.58304
4.93899
4.65376
4.6693
4.91504
2.76731
2.13845
2.17392
2.1684
3.73614
5.51511
3.04077
2.80559
3.4896
3.95831
2.20242
2.43333
3.23245
2.81971
2.08687
3.1761
2.60761
2.24267
6.3313
6.95458
4.88326
4.90275
6.34803
6.83975
6.23361
4.97357
5.09344
5.37319
5.04536
5.02923
6.43846
6.90134
7.32126
6.18485
6.76449
5.7713
5.66732
5.19521
29.6122
6.74593
13.8236
6.8741
9.41841
2.4783
2.41988
2.68354
2.78461
2.31119
2.41856
2.34904
2.31525
2.88536
2.69452
2.60727
2.60638
2.2971
2.45279
12.3362
12.4936
13.091
18.6168
16.0071
18.4874
6.15692
7.73772
11.8763
15.7275
6.32282
4.76607
4.87366
4.9565
4.88794
4.62661
4.64214
4.76066
4.73878
4.8671
5.01376
4.87828
6.95507
7.08681
8.29935
7.90218
6.58341
6.16078
6.22246
7.69505
6.79342
6.37402
6.49093
5.89374
7.65825
8.25877
7.52625
5.60376
5.72176
5.50705
5.44365
5.62837
5.50914
5.22617
5.32968
5.2827
5.28602
5.5334
5.79232
5.3988
5.50351
5.43916
5.39029
5.69582
5.83237
5.40818
5.62923
5.51437
7.8561
7.48143
7.50865
7.09405
6.8525
6.40681
7.68362
8.1597
7.20116
6.51044
5.94001
6.84314
5.94918
7.43062
5.90658
7.07043
6.44996
8.27332
8.21688
7.93006
7.80909
8.50897
8.90669
8.37243
9.43658
9.81437
8.79082
8.24002
9.13399
8.55814
7.49105
8.16374
9.08923
7.99002
8.27653
7.70416
8.34746
5.83315
5.97461
5.77592
5.85521
5.59813
5.79409
5.95484
5.69628
5.74502
5.9065
5.8891
5.91746
6.1301
6.13805
2.66331
3.03159
2.85521
3.00822
2.92349
2.80076
3.46651
2.78802
2.87388
3.01989
3.80171
3.00127
2.84195
3.9446
3.25888
3.81788
4.32421
2.87527
3.17954
3.55396
5.5613
3.7693
4.70487
3.28998
4.83179
2.08891
2.1317
2.29622
2.05231
2.18412
2.20281
2.10939
2.15705
2.23463
2.12721
2.03902
2.00019
2.06242
1.99929
2.07629
4.06015
4.13004
3.58683
3.3282
10.0192
11.1696
3.29827
11.742
3.72697
3.96418
3.72728
6.55692
5.75651
10.615
12.2559
8.28921
9.6447
8.55168
5.72481
5.87419
5.83964
5.7085
5.97309
6.48482
6.17109
6.00301
5.85958
5.67948
5.68199
6.36025
5.81691
6.4165
5.95272
6.49098
5.71658
5.68202
6.48886
5.92097
6.31925
4.58795
4.50084
4.50015
4.48085
4.52267
4.51618
4.58767
4.60784
4.54163
4.55319
4.6095
4.69725
4.80869
4.72415
4.68314
3.62686
3.69404
3.65143
3.63546
3.68365
3.75668
3.71332
3.60887
3.96017
3.77518
6.74422
6.89844
7.16665
6.96608
6.54831
7.07772
7.53159
7.32439
7.3193
6.85637
6.75015
6.99819
6.15211
6.37546
6.85179
5.38568
5.60946
5.69745
5.58232
5.79477
5.84483
5.20024
6.02801
5.85404
7.0703
6.49679
6.05381
5.38804
5.65786
6.6683
7.13998
5.81217
3.02753
3.1506
3.14283
3.14239
2.62511
2.94573
2.59863
2.61143
2.57545
3.2656
3.38226
3.1792
2.61284
2.86553
3.44356
44.3279
15.0168
20.9546
10.039
17.893
35.7638
31.762
26.3128
12.9743
11.5562
10.039
23.6688
15.8517
14.7601
27.327
4.93759
4.7964
4.92682
4.87624
4.71982
4.84126
5.36319
4.94946
5.71195
5.09352
5.47372
5.02078
4.88304
5.12688
5.03818
4.82611
4.76932
4.86616
5.0425
4.66461
4.63351
4.97195
4.88182
4.97893
4.83798
4.81221
4.85713
4.69679
4.75401
17.8078
13.4261
18.8851
33.1291
24.1633
18.87
17.2199
38.9558
19.2331
3.08161
2.86358
3.15736
3.12216
2.82836
2.85135
3.18148
4.03352
4.05701
4.905
4.80779
3.5955
3.73277
4.56432
3.25536
4.15106
4.19839
3.29707
59.7777
66.9504
81.1598
38.2143
64.792
75.0833
105.349
101.138
45.0829
89.1213
60.3073
61.1963
85.1144
88.1013
122.341
124.519
212.202
76.5919
92.2336
122.495
204.111
62.2229
65.9204
62.0297
81.1257
63.6792
121.402
46.9797
46.1197
82.0666
62.5248
8.75618
5.6479
7.15658
20.4342
8.33299
26.0398
4.87516
8.35751
14.7095
8.02969
9.50841
9.27962
10.5375
9.5375
10.0913
8.89169
8.39141
9.69445
10.619
9.74612
10.5861
10.4501
9.85077
10.2954
9.90837
14.9584
15.0173
15.2519
13.9349
16.9687
17.1582
14.4028
13.2123
17.1558
14.7816
15.3956
11.6042
12.6516
10.7857
13.703
9.11423
14.9627
13.1001
8.56422
24.9359
23.4789
32.8729
28.7047
28.0429
26.8659
28.3087
34.7047
37.1005
35.9938
36.8191
41.8264
45.2211
8.36252
7.47344
12.8907
15.52
7.94521
8.39472
14.7117
11.4534
7.49416
7.2816
11.8824
8.51064
8.07965
8.26252
9.67734
14.1154
16.1714
19.6243
15.4245
19.0713
16.3786
10.4464
22.8561
13.1776
22.529
23.2165
22.418
28.2482
24.9051
9.44649
8.5885
20.6696
26.5374
28.2318
20.7142
3.35413
3.31489
3.23194
3.27552
3.30836
3.34067
3.3699
3.32157
3.19144
3.19371
3.32159
3.36772
3.28562
3.36997
3.34489
3.68499
3.55812
3.58182
3.25245
3.44993
3.60532
3.30626
7.34986
6.86791
7.18916
6.73593
7.12779
7.33355
7.81197
7.68378
7.34407
7.03126
7.11965
7.66968
7.11009
7.8118
7.50081
7.40749
7.16607
3.57526
3.76611
4.06585
4.06001
3.9006
3.70447
3.54915
3.59103
4.15227
4.37486
4.87634
4.77542
5.38349
3.26253
3.79985
4.02907
3.94981
4.27473
3.90039
14.9383
12.8691
8.21173
8.49991
7.69191
7.46756
8.43623
10.148
15.953
16.2728
15.1186
15.5191
17.5257
11.3918
8.41958