/*--------------------------------*- C++ -*----------------------------------*\
  =========                 |
  \\      /  F ield         | OpenFOAM: The Open Source CFD Toolbox
   \\    /   O peration     | Website:  https://openfoam.org
    \\  /    A nd           | Version:  10
     \\/     M anipulation  |
\*---------------------------------------------------------------------------*/
FoamFile
{
    format      ascii;
    class       volScalarField;
    location    "13";
    object      p;
}
// * * * * * * * * * * * * * * * * * * * * * * * * * * * * * * * * * * * * * //

dimensions      [0 2 -2 0 0 0 0];

internalField   nonuniform List<scalar> 
75457
(
-33.5619
-30.4587
-26.3228
-24.12
-19.6608
-20.77
-29.4607
-28.9859
-18.8263
-13.4708
-17.3649
-18.8099
-18.1167
-15.9361
-3.6773
-4.15338
-3.91854
-4.0323
-4.51791
-4.04691
-3.49076
-4.21823
-4.2144
-4.54109
-4.3244
-4.65806
-4.32396
-0.966961
-1.04161
-0.664551
-0.310883
-0.593617
-0.691108
-0.740287
-0.163736
-1.07806
-0.96984
-1.29621
-1.34534
-0.415551
-0.596287
-0.397372
-0.832536
-11.521
-11.6239
-10.6204
-10.6945
-11.14
-5.64567
-6.24251
-6.61982
-5.98611
-6.06232
-6.22784
-6.60658
-6.70889
-6.44346
-6.68711
-6.00137
-6.25997
-6.10054
-5.94609
30.9308
31.1926
30.9325
31.2585
31.486
31.5134
31.1725
31.2106
31.4718
31.2627
31.0056
31.2519
31.2415
30.9313
31.1312
-7.31883
-8.46309
-7.03141
-8.39
-10.3135
-5.0887
-5.39582
-7.39943
-8.12048
-8.02477
-8.00535
-5.38738
-6.07064
-5.27156
-5.18182
-5.88138
-5.31504
-6.94276
-7.10101
-7.13227
-7.48056
-7.07837
-6.90439
-8.0943
-7.31607
31.4474
31.3364
31.5986
31.6147
31.481
31.3313
31.2506
31.7023
31.7041
31.3181
31.328
22.017
22.6809
25.1515
24.7239
22.0803
23.6643
23.6974
23.1641
23.5226
25.2178
25.0015
25.5453
26.0862
24.8364
24.2726
23.072
25.499
24.4922
13.5349
13.4972
12.916
13.8097
13.4009
14.9328
14.6179
14.5038
14.4943
7.63937
7.18042
7.74623
7.29428
6.72816
7.23802
7.25861
6.31555
-7.25512
-7.29414
-6.69257
-6.8928
-7.27556
-6.93686
-6.64862
-6.16763
-4.64076
-4.68333
-6.20648
-5.93235
-5.46976
-6.17251
-5.0577
16.1254
17.7315
17.9747
17.3109
17.7327
14.006
15.3955
16.9613
15.965
16.9313
14.2484
12.9277
13.5233
-9.57368
-10.0384
-9.91311
-10.1094
-9.88701
-10.0164
-9.34316
-10.0295
-9.87968
-10.1125
-10.0963
-9.93144
-9.85294
-9.98686
-8.80142
-7.46114
-9.9388
-7.33397
-7.67956
-9.26625
12.2729
13.0701
11.751
12.4752
10.7014
11.5192
13.8294
13.5626
12.6416
9.91465
9.90125
-7.67706
-7.52382
-7.92938
-7.8873
-7.83757
-7.76894
-7.60602
-7.46539
-7.06663
-7.9059
-7.65704
-7.4362
-7.79339
-7.39302
6.14018
5.18668
5.59433
3.87266
4.43738
5.21438
5.15176
6.38767
5.96039
4.99808
4.39254
3.71663
5.99457
4.42758
-7.0696
-7.14369
-6.83982
-6.79684
-7.10597
-7.04006
-7.14565
-7.10475
-7.29827
-6.79476
-7.05049
-6.52679
-7.16511
-7.25878
-6.99679
-6.94549
-7.11472
-10.3158
-9.96755
-10.0149
-9.85696
-11.1178
-9.56657
-9.54686
-8.93542
-9.83033
-10.2522
-9.43077
-9.95406
-12.6826
-12.6606
-12.5941
-12.6808
-12.4572
-12.9356
-13.2421
-12.8754
-12.7496
-13.2448
-12.6572
-12.517
-12.7309
-5.3989
-5.1259
-5.45126
-4.82213
-4.85212
-4.72583
-4.51816
-4.45501
-4.42655
-4.97368
-5.28731
-5.17193
-4.34718
-4.82536
-4.71776
-0.41718
-0.403364
-0.223002
-0.390234
-0.191741
-0.289952
-0.588745
-0.619734
-0.16029
-0.0853259
0.312389
-0.00346248
-0.168323
0.191469
0.746581
0.267708
-0.0805747
0.403767
0.0957181
0.0882728
-0.0711847
-0.114083
-4.51324
-5.25737
-3.34768
-3.83258
-4.26555
-4.53306
-4.51254
-4.61438
-4.66832
-3.8488
-4.43513
-8.32468
-8.48003
-8.66187
-8.67668
-8.59273
-8.27589
-8.3482
-8.77336
-8.98134
-8.71904
-8.97133
-8.095
-8.39824
-8.53836
-8.69955
-8.44671
-8.59408
-16.3601
-15.1151
-14.8296
-16.3093
-19.2704
-19.1495
-18.6302
-17.8712
-17.8672
-17.2435
-18.7562
-3.87878
-4.36373
-5.07767
-4.92618
-4.53774
-4.7593
-4.22021
-4.97876
-5.04632
-4.51484
-4.44279
-0.212003
-0.12939
-0.341957
-0.422554
-0.142144
-0.119449
-0.419717
-0.152145
-0.451902
-0.578371
-0.538168
-0.230329
-0.452663
-0.910493
-0.776174
-5.3411
-4.29749
-6.61392
-5.40906
-5.29221
-7.34279
-7.72153
-7.35936
-7.70521
-7.70023
-7.33812
-8.16902
49.6277
54.4157
43.0647
45.6795
48.4898
50.5684
50.2025
53.0383
45.7065
50.1017
48.3138
49.3353
45.4929
49.9388
44.1686
45.6957
47.5967
42.6324
34.454
34.0078
34.7985
35.5363
36.4399
37.4221
34.6711
35.284
37.782
41.272
38.0089
38.1843
39.8618
25.8048
23.0333
20.4436
22.0793
26.7191
23.4137
21.9668
23.3622
22.9875
21.0981
28.3961
28.3559
21.4166
22.9701
20.4564
26.6951
28.791
28.8206
24.8004
24.7929
25.4589
26.7947
-9.09363
-9.45948
-9.72112
-9.70068
-9.82372
-9.23542
-9.30085
-9.46056
-9.52964
-9.19498
-9.65505
-9.21422
-9.39972
-9.29056
-9.49866
-9.46567
-23.2333
-26.4339
-13.4197
-21.3596
-12.0486
-18.8511
-16.1348
-13.3626
-12.2825
-17.0352
-30.7582
-25.8682
-16.5235
-23.491
-12.0306
-14.344
1.88041
1.72693
1.89745
2.73338
3.09753
3.70157
1.53446
1.2103
2.85852
2.82996
3.71016
3.3627
3.09259
3.01733
2.85662
2.20706
1.47543
2.27746
33.5839
37.5729
36.1226
32.7682
34.0816
36.8237
40.3828
39.4834
34.3084
40.3154
41.9905
40.2662
36.3708
33.1587
33.9573
35.0262
26.7058
26.0526
26.5551
26.327
25.4762
27.2696
27.8454
27.225
26.5934
27.5306
26.9712
26.1516
27.0091
25.4266
26.1129
27.644
28.1226
12.0412
11.8929
11.6151
11.9848
11.9729
12.0265
12.094
12.1802
12.2184
12.064
11.7078
11.7735
12.2822
11.9251
12.0392
11.3255
11.3254
-3.88831
-4.86026
-6.36028
-5.4272
-4.4589
-4.50516
-4.11707
-4.08552
-4.90439
-4.51138
-6.10513
-6.2196
-4.98095
-3.1481
-5.62502
-4.7926
-4.69366
-5.49377
-3.61102
-3.678
-3.60054
-3.52365
-2.88002
-3.3455
-3.4216
-3.48056
-3.02187
-3.20873
-3.29663
-2.93717
-2.92399
-3.15709
-5.55776
-5.25039
-6.11722
-7.04298
-7.02141
-6.37119
-5.95661
-5.92667
-5.83637
-6.74032
-6.8666
-6.57129
-6.2938
-5.80649
-6.11627
-6.7446
-7.05134
-7.13536
21.1341
16.8789
17.7048
24.4317
20.7349
14.8651
17.8251
17.9204
14.3971
22.7774
17.9717
15.0486
-9.06178
-8.8375
-8.68996
-8.59155
-8.93374
-8.67351
-7.63274
-8.03894
-8.82322
-8.85936
-8.7798
-7.99658
-8.10857
-8.53911
-8.71808
-8.50692
-4.83376
-5.27791
-4.44832
-4.7262
-5.61137
-5.4894
-5.37628
-4.31935
-4.2395
-4.32672
-4.31132
-5.22639
-5.42026
-4.47419
-4.10046
-5.02145
4.40727
3.64809
2.98032
6.16346
7.04889
4.65759
5.35926
2.13238
3.70322
4.37405
5.95983
4.89565
5.95162
6.75052
6.47971
3.43392
3.52745
4.81553
2.90965
-2.09868
-1.10728
-2.13335
-3.4865
-2.60328
-1.59278
-3.3358
-2.90708
-2.15473
-2.57662
-2.03091
-3.46297
-2.30918
-1.91202
-1.40931
-1.16136
-1.12897
-1.79466
-1.47131
-1.43883
-1.34272
-1.30016
-1.71711
-1.15491
-1.64474
-1.20159
-1.97187
-0.989824
-0.961846
-1.16072
-1.05733
-1.32605
-4.13724
-4.74613
-3.83844
-2.47791
-2.93895
-6.57674
-4.06548
-3.77708
-3.76926
-4.88778
-6.31422
-6.54134
-6.82845
-6.83351
-6.6748
-7.84033
-8.40313
-7.92889
-8.86346
-6.11312
-5.96945
-8.03391
-9.32124
-9.01683
-8.16329
-8.03576
-9.19724
-8.0824
-7.62521
-8.29442
-8.3715
-7.05964
-10.1096
-10.1166
-9.85296
-10.0137
-9.82607
-9.96441
-10.0601
-9.76663
-9.60801
-9.77676
-9.94492
-9.74474
-9.79615
-9.77767
-9.83789
-9.73769
-9.80553
-6.68297
-7.02111
-8.15407
-7.93037
-7.16071
-7.64317
-7.89162
-7.85112
-7.44162
-7.84309
-7.17077
-3.86371
-4.34652
-2.94015
-2.46375
-2.61352
-2.33046
-2.75067
-1.35299
-2.57386
-2.59344
-2.65288
-2.61012
-1.85314
-2.55383
-2.36747
-2.36939
-2.66328
-2.57663
-2.01841
-2.49049
-2.26062
-2.6838
-2.65164
-2.1984
-2.22897
-2.39387
-2.04559
-2.37461
-2.21699
-1.99828
-2.24417
-1.96755
-2.19843
-2.3159
-2.03119
-5.69202
-5.91314
-5.83271
-5.75486
-5.32491
-4.76824
-5.7399
-4.54327
-5.30061
-4.03564
-4.81145
-5.22074
-5.50752
-4.99099
-4.7934
-6.20394
-5.13364
-4.59424
-4.40596
-4.32401
-7.28399
-7.47165
-7.62001
-7.56549
-6.81419
-6.95435
-7.49329
-7.53191
-7.41232
-6.32802
-6.65618
-6.62793
-6.34156
-6.91531
-6.80488
-7.0812
-6.20713
-6.43425
-6.99038
-7.03401
-6.34109
-6.49461
-5.58827
-6.69012
-6.16485
-6.77021
-6.3366
-7.36824
-5.7661
-5.62224
-5.65729
-6.23406
-6.57341
-6.15956
-6.92779
-6.18164
-5.97885
-6.17991
-6.02653
-7.22159
-6.77903
-8.07615
-7.54384
-8.35518
-9.09994
-8.69424
-8.55851
-8.06478
-8.07289
-8.93658
-8.92746
-9.33476
-8.31008
22.1876
22.6972
23.6564
22.6766
23.4803
22.189
23.2279
22.0744
22.6608
23.6566
-9.38586
-9.15125
-8.78338
-8.83234
-9.41934
-9.4311
-8.90994
-9.11822
-9.36442
-8.77117
-9.21343
-9.06147
-9.06371
-9.39955
-9.11194
-9.39175
-9.42352
-9.40269
-8.8566
-9.70389
-9.46601
-9.11001
-9.79039
-8.68551
-9.50211
-8.59969
-8.41598
-9.45688
-9.66733
-8.58251
-9.56184
-9.67219
-9.09035
-8.75775
-9.74145
-9.10171
-9.07096
11.4902
11.8913
12.5942
12.0162
11.6872
12.8195
9.39463
10.9779
11.2033
10.8616
10.152
12.2515
11.7315
12.2673
11.3832
10.9446
-14.6099
-15.6023
-14.5979
-13.9919
-14.0913
-11.9074
-12.4735
-13.0823
-14.1581
-14.6454
-10.7259
-12.3945
-13.4128
-11.0093
-12.0322
-10.2282
-9.95937
-9.95812
-10.9259
-11.0654
-11.7558
-10.167
-9.73008
-9.46535
-10.6368
12.2278
11.2192
10.8499
10.9172
10.9901
9.48088
9.14947
8.55861
8.60246
9.17338
9.31231
8.38669
10.1981
9.27519
10.9956
11.0999
9.11583
10.248
9.86359
-9.39543
-9.44692
-9.86874
-9.38796
-10.7519
-9.61349
-9.21405
-9.79921
-9.79318
-9.3433
-9.21879
-9.94046
-10.111
-10.583
-10.1102
-9.38378
-9.29319
-10.1933
-9.96479
-5.52891
-6.78687
-6.15611
-5.8445
-5.73721
-6.14107
-5.67973
-5.14546
-6.28521
-6.07512
-6.12873
-5.69123
-6.35747
-6.09327
-6.45979
-6.46579
21.5986
22.172
21.5151
21.3015
22.5898
23.4572
23.1706
22.2801
22.3288
23.1594
23.325
22.4117
23.2244
23.7825
24.4379
23.8901
-12.1479
-14.114
-10.3457
-10.3292
-15.2477
-18.0911
-7.1797
-8.31917
-10.9474
-13.5289
-10.3483
-11.0476
-12.6999
-17.8896
-16.1272
-8.78062
-13.7504
-10.7253
-14.222
-16.6777
57.9927
52.0459
47.6978
47.3612
56.4701
57.772
51.2818
56.0882
50.2695
52.2626
49.8438
50.2763
47.1022
46.9677
52.6834
20.3897
19.071
23.7136
25.37
23.2118
20.1505
25.5233
22.0794
24.5328
27.792
26.7214
27.9599
29.6897
27.4885
-14.3542
-15.0976
-14.6463
-15.4011
-13.5044
-13.778
-12.174
-11.0438
-13.3695
-13.3092
-11.5152
-11.051
-13.7829
-12.0866
-11.771
-12.3824
-5.08667
-4.79244
-4.84703
-5.01279
-4.80125
-5.11186
-4.72452
-5.07582
-5.26441
-4.60072
-4.66496
-4.60217
-5.18378
-5.02471
-4.68508
-4.89144
-4.8312
-5.16284
-4.9651
-10.2851
-10.3444
-9.89967
-10.6168
-10.7685
-10.64
-10.0342
-10.6934
-10.6233
-9.2272
-9.78485
-9.56069
-10.1361
-9.81815
-10.8943
-10.5715
-9.14479
-9.5595
-9.2767
-9.36878
-9.05496
-9.11476
-9.5473
-8.99794
-9.16997
30.3914
29.5691
29.6343
30.073
30.2441
29.8595
29.6447
29.6759
30.3842
30.1846
30.2413
29.9943
30.0665
29.8475
30.1614
30.2251
30.2554
30.0505
29.702
30.3195
-6.71782
-7.52454
-6.65681
-7.17249
-6.66022
-6.33605
-6.48979
-7.26269
-6.27469
-6.58432
-6.78305
-6.96506
-4.09576
-4.1796
-3.78468
-3.63805
-3.46073
-4.16353
-4.17397
-4.304
-4.06427
-3.62708
-3.61964
-3.93005
-3.9677
-3.61929
-3.7589
-3.70733
-3.87974
-3.7286
-3.12063
-2.95077
-3.24168
-2.95255
-3.09145
-3.48044
-3.54204
-3.6768
-3.71651
-3.01852
-3.44397
-3.13778
-3.7702
-3.65605
-3.27376
-3.10619
-3.77919
-3.49412
-3.05341
-2.29201
-2.41823
-2.55398
-1.89118
-2.23167
-1.98203
-1.93012
-2.65384
-2.30841
-2.75561
-2.69044
-1.96658
-1.99389
-2.11839
-2.78992
-2.71348
-6.1783
-6.07672
-6.26513
-6.23745
-6.3465
-5.9369
-5.86653
-6.85084
-6.6865
-9.56807
-9.31247
-9.38917
-9.53572
-9.57405
-9.61422
-9.46702
-9.75863
-9.47375
-9.31345
-9.59336
-9.4106
-3.91086
-3.7602
-3.89709
-3.91248
-3.84053
-4.04697
-3.98521
-4.16977
-4.15519
-3.96247
-4.41572
-4.36705
-4.30416
-4.41199
-4.24591
-4.40696
30.851
31.065
30.7825
30.5239
30.1817
30.2669
29.7815
29.7239
29.9928
30.5231
-8.31776
-8.0847
-8.33792
-8.10523
-8.39981
-8.29506
-8.57768
-8.54923
-8.66443
-8.70465
-8.40139
-8.24489
-8.44813
-8.85102
-8.74837
-8.51611
-8.44428
-8.43968
-4.91847
-5.22055
-4.83347
-4.90942
-4.86033
-4.83785
-5.07543
-4.86695
-5.00606
-5.43009
-5.17845
-5.25319
-5.01954
-5.20009
-4.77985
-4.88276
-5.08877
-4.8829
8.58032
7.96208
7.36412
8.35056
6.5157
5.94123
8.99015
8.45452
7.13077
8.66398
7.67602
6.75643
7.53684
7.57399
30.6455
30.5428
30.4249
30.2502
30.6978
30.2941
30.1136
30.1478
30.4536
30.2714
30.4395
30.5639
30.1407
30.1063
29.9952
30.0378
30.4153
30.2109
30.3552
30.1243
43.1558
41.8029
34.9491
38.0438
27.5865
31.9276
17.4397
33.1795
33.1259
30.4887
36.232
26.4023
38.0652
43.2307
39.0327
46.5427
28.1169
39.3827
34.8868
-8.55874
-8.93324
-5.53823
-4.05234
-10.089
-11.8677
-11.4173
-13.4713
-5.15259
-5.16825
-15.3382
-12.0712
-7.08245
-11.5294
-12.4955
-7.98752
-8.23944
-12.648
-10.0594
-9.68519
-0.760535
-1.34274
-1.27756
-1.26327
-1.61175
-0.838354
-2.05325
-1.32816
-1.4233
-1.46584
-1.44942
-1.34194
-2.02506
-1.04897
-2.05043
-2.10952
-1.8155
-1.86253
-0.999071
-17.5198
-17.6856
-18.4543
-17.8974
-18.127
-18.916
-16.4106
-17.3486
-18.1577
-15.4959
-17.0132
-16.6032
-17.074
-17.6968
-17.3584
-17.7695
32.2773
32.228
32.0949
32.1714
32.4443
32.4616
32.3385
32.3674
32.1776
32.0416
32.5617
32.3378
32.502
32.4967
32.1207
32.0435
32.2115
32.3824
32.5134
32.1083
-0.110851
-0.258707
0.301818
0.719188
-2.19945
-2.27922
-2.70755
-3.55961
-1.47902
-0.0953838
0.278249
-2.19736
-2.54053
-3.06281
-3.79112
-3.67623
-1.37248
-3.17863
-2.93352
-1.87893
32.4788
32.3747
32.4582
32.5011
32.4904
32.5041
32.4263
32.5597
32.6222
32.6269
32.6928
32.4055
32.5753
32.538
32.6512
32.633
32.5213
-5.61828
-5.53205
-5.65345
-5.89254
-5.8281
-5.5239
-5.34091
-5.71434
-5.78248
-6.04164
-5.37616
-4.96987
30.602
30.4161
30.9627
30.9642
30.7235
30.666
30.3335
30.5469
30.7626
30.9291
30.9684
30.5985
30.4435
30.5601
30.3561
30.559
30.3576
30.6194
30.686
30.3461
30.5878
24.2405
23.8027
23.8999
24.3152
24.3473
23.5098
23.8931
25.534
25.7008
25.4858
24.8015
24.4378
24.0785
24.0199
24.04
24.7337
24.6167
24.628
9.24921
9.51114
9.59044
9.17072
9.43668
10.1427
9.78067
9.81784
9.56816
10.7287
10.5535
10.8021
10.6336
9.70202
9.42886
50.4822
45.4101
39.5776
40.9955
47.3334
45.4414
56.9109
42.2697
49.1198
44.0163
56.4677
56.2786
51.9977
45.2506
-1.23698
-0.898263
-1.52418
-2.13784
-1.91246
-2.28622
-1.28624
-1.37647
-1.73474
-1.38915
-2.25609
-1.7718
-1.43573
-0.925901
-1.15188
-1.70088
26.1075
24.0529
25.693
23.8935
23.557
23.947
24.2671
24.3206
25.1765
25.5783
28.0363
27.5269
26.5438
28.8628
29.4483
26.8654
27.8955
31.7779
31.7411
31.3414
31.4386
31.544
31.5925
31.813
31.8489
31.3097
31.425
31.7597
31.7895
31.7441
31.6257
31.5809
31.7472
31.5553
-10.4582
-8.31023
-8.32118
-11.4272
-7.46374
-12.349
-17.6165
-7.49772
-9.9844
-10.8423
-10.0346
-9.57494
-10.3606
-7.9618
-17.167
-17.1235
-14.3319
-15.2481
19.0006
18.6583
20.2548
19.9253
19.2345
17.9268
18.3374
19.8784
20.35
19.9572
19.7153
20.0153
18.3532
18.1036
17.4643
19.2441
18.1361
18.7563
17.715
19.2185
18.5206
18.2869
-4.06133
-4.56068
-4.34257
-4.11379
-3.31913
-3.48077
-2.25215
-2.50376
-3.31634
-4.2285
-3.8798
-3.50637
-2.54506
-2.398
-2.51073
-2.55746
-4.47147
-4.99784
-4.30752
-4.39878
-4.81389
-4.65532
-4.41195
-4.70656
-5.01139
-4.8326
-4.88877
-4.15527
-4.20555
-4.09467
-4.27312
-4.24624
-4.97741
-4.9584
-4.86258
-4.57988
-4.22657
-4.65601
-4.66274
-4.5316
-4.58887
-4.74353
-4.96688
-5.01249
-4.52028
-4.88305
-4.50989
-4.66436
-4.40753
-4.87795
-4.09342
-4.40479
-4.20378
-4.93466
-4.55788
-4.2138
-4.92898
-8.22926
-8.806
-8.67967
-10.2096
-6.976
-5.88356
-9.26747
-8.9783
-4.31374
-4.98386
-2.59337
-5.66167
-3.35516
-6.02765
-5.54818
-7.43334
-7.22994
-5.71021
-5.19213
-1.87407
-4.06003
-2.38535
7.34176
5.70132
5.03406
5.52857
6.14585
7.73244
7.61756
6.53569
5.81584
4.962
5.37722
5.53971
5.16089
6.209
6.07148
7.13965
5.92623
5.18663
5.85025
-7.45698
-7.02136
-7.21593
-7.26924
-7.40186
-7.43782
-7.63114
-7.93115
-7.43411
-8.01675
-7.5243
-7.34335
-7.38631
-7.31632
-7.37878
-7.33256
-7.38114
-4.2912
-4.49048
-5.98438
-5.44987
-5.23575
-5.50223
-5.74099
-5.42151
-4.82232
-5.65064
-5.01972
-5.67409
-5.3415
-5.3956
-3.9608
-4.62467
-4.68744
-5.14703
-4.28166
-4.71057
-3.79005
-4.9285
-4.77122
-5.05281
-5.15146
-3.71403
-4.50178
-4.80701
-4.72126
-4.01144
-4.85487
-0.204486
-0.476486
-0.191186
-0.0287545
-0.137064
-0.225211
-0.317925
-0.35337
-0.0061065
-0.193282
-0.427274
-0.369402
-0.528442
-0.562063
-0.143923
-0.288305
-0.651936
-0.554504
-0.554485
-0.530113
-0.241139
-0.0572123
-0.691659
-0.0322009
-0.273208
-0.232408
-0.455169
-0.621018
-0.30336
-0.407551
-0.239183
-0.0726056
-0.0685319
-0.290095
-0.536762
-0.271565
-0.252415
-0.59619
-0.0690852
-0.289139
-10.6423
-11.9766
-15.476
-16.2117
-16.2189
-16.9544
-11.4601
-13.0107
-13.7705
-9.51844
-11.5228
-12.5811
-15.1078
-14.3809
-13.8967
-12.6924
-12.2332
0.474047
0.48004
0.0871787
1.36617
0.724918
-0.145144
-0.409677
1.42743
1.14187
0.19062
-10.6308
-10.7408
-11.2206
-11.4801
-10.7055
-10.7092
-10.8135
-11.421
-11.3916
-10.9633
-11.069
-10.8304
-10.8516
-10.268
-10.2508
-10.6291
-10.607
-10.6215
-8.47772
-8.42493
-8.57686
-8.17997
-8.63689
-8.29566
-8.38118
-8.26068
-8.0002
-8.07215
-8.72933
-8.81007
-8.51646
-0.63131
-0.371731
-0.75068
-0.455266
-0.908038
-1.11206
-0.804823
-0.239088
-0.143953
-0.651135
-0.96478
-0.783239
-0.202448
-0.149947
-10.1425
-10.0355
-10.4692
-10.1947
-10.0067
-9.94466
-10.3158
-10.2658
-10.2273
-10.1207
-10.1419
-10.4215
-10.0984
-9.83283
-10.6314
-19.3122
-18.5036
-18.0974
-18.2518
-17.154
-16.8531
-19.9804
-19.6809
-19.8034
-20.1784
-20.7461
-20.9145
-17.8737
-17.76
-18.5592
-18.5118
-18.6858
-20.1471
31.3244
31.3204
31.5782
30.9214
31.0366
30.9981
31.1067
30.9263
31.249
31.226
-7.73325
-7.78943
-7.78193
-8.00716
-7.70684
-7.9931
-7.67185
-7.76372
-7.56819
-7.64537
-7.68089
-7.9215
-7.99001
-7.79359
-8.02049
-7.65689
-7.78789
-7.80712
-7.60409
-7.7707
-7.82864
-7.78761
-3.50388
-3.29171
-3.36324
-3.11605
-3.20061
-3.23042
-2.77367
-2.91996
-2.72494
-2.94348
-2.65344
-2.65554
-2.54839
-2.68207
-2.52
-2.51821
-2.35188
-2.79555
32.9941
33.9615
35.233
33.9279
32.492
34.979
33.1623
34.1082
30.4151
32.271
33.8462
31.0275
31.3601
30.118
28.8362
31.9412
29.7422
28.6119
29.688
33.2653
31.1197
30.1607
27.5869
32.8627
33.6803
35.0072
34.4791
38.9411
38.1021
35.3207
37.9562
31.1649
30.4552
38.7902
39.8279
36.3767
39.1162
32.3618
32.4759
32.5345
32.3471
32.4502
32.3455
32.5192
32.4745
32.3244
32.4487
32.2723
32.3104
32.5255
32.4667
32.4682
32.5219
31.8972
27.7606
27.3416
29.7105
30.8098
32.6423
30.5531
30.6296
26.9652
26.2876
31.0249
28.8232
30.4109
27.6839
29.7971
27.5125
27.258
28.5989
29.1825
28.0086
28.6925
29.8442
29.6915
28.945
28.2139
29.8514
30.2695
29.7784
24.3959
23.9306
26.1823
27.5382
15.6544
14.6342
24.75
24.5773
15.3862
17.5991
20.1735
20.0547
21.7955
19.2806
16.8
14.7086
30.1873
29.3437
29.7039
30.2173
29.4191
30.7415
30.3384
29.5409
29.5603
32.4104
31.9777
31.6611
31.1097
29.9858
31.1188
30.5553
31.619
31.0049
30.3464
31.899
9.92035
11.765
6.43196
3.44199
4.64146
7.52519
14.9192
6.54018
10.4245
10.3799
4.06012
9.10746
9.83115
6.72047
9.72527
16.3975
16.4549
14.9069
12.9012
11.2445
20.2836
17.3904
17.4245
14.6023
18.5639
18.6851
18.6859
16.0058
14.5707
15.6373
15.7613
16.5347
16.8893
31.6958
31.7386
31.5573
31.4514
32.1055
32.076
31.6625
31.5043
32.2533
32.2648
31.7152
31.9964
32.2472
32.2146
32.1141
-9.31558
-9.11408
-9.59955
-9.5525
-10.0113
-8.9045
-8.66186
-10.5361
-10.1754
33.9359
33.062
32.0506
31.9904
32.7361
32.1029
34.3417
31.8038
35.5628
34.1157
31.9044
33.7618
34.4044
34.7747
35.2338
31.0145
31.3215
33.1035
35.2788
33.9485
31.5113
32.3888
6.17943
6.88997
6.17855
4.31471
5.32233
6.2019
3.01844
4.27252
4.58432
2.44316
3.65873
1.74003
2.49659
1.38102
0.927862
1.80634
3.03924
4.59828
0.61237
3.49184
30.4843
28.7836
33.5392
28.9672
30.8723
37.2501
34.4968
30.6949
34.421
30.0761
32.5427
38.4242
36.255
36.9672
40.3713
33.6951
32.9175
31.2021
35.6784
29.6727
32.861
30.5522
34.5016
38.8937
39.7906
37.93
-9.44408
-10.3648
-10.1868
-9.5307
-9.65137
-10.467
-9.77886
-9.41927
-11.0559
-9.43861
-9.78163
-10.3951
-9.79819
-9.22186
-9.14737
-9.65678
-9.63188
-10.3696
-9.54511
-9.01865
-8.98432
-9.06872
-9.09605
-9.80676
-9.23494
-9.72355
-5.4352
-5.16176
-5.88354
-6.37624
-5.32816
-5.56376
-5.25136
-4.09046
-6.01699
-3.39417
-5.97405
-4.78783
-4.31111
-5.00938
-5.96163
-5.93398
-5.35941
-5.07073
12.1821
11.6638
8.17655
10.2367
8.85353
6.86531
3.55787
8.35922
8.63338
6.15744
1.19893
5.01949
6.43802
27.8032
28.5899
28.9331
27.5594
29.2225
29.0015
29.3857
28.5158
28.65
27.6279
27.8233
29.713
29.073
-11.0916
-10.9203
-11.7313
-11.1398
-11.172
-11.6842
-12.8112
-12.3353
-13.7468
-11.8951
-12.0423
-11.6234
-13.014
-11.302
-10.0092
-9.8203
-10.2136
-10.6029
-10.9903
-11.1306
-11.3836
-10.1444
-10.3857
-10.5806
-10.3205
-10.0747
-10.3812
-10.2419
-10.0344
-9.66644
-10.0023
-10.1525
-10.3143
-9.75279
-9.53184
-9.54043
-9.45374
-9.81228
-10.0566
-10.1682
-10.3111
-9.84005
-9.73094
-9.93854
-8.00747
-7.6696
-7.69476
-7.56087
-7.61479
-7.51497
-7.52924
-7.8693
-7.60471
-7.51018
-7.69838
-7.67234
-7.65556
-8.18887
-3.57651
-4.88911
-4.8056
-3.77045
-4.48866
-4.95638
-5.49591
-3.55335
-3.60129
-4.22456
-4.08304
25.2782
26.8974
25.9778
27.1016
26.3505
27.2675
26.3683
25.6018
26.6984
25.8129
27.2308
24.9777
26.5273
35.2866
38.148
40.439
48.7906
46.5569
35.0387
52.139
51.3464
38.4352
44.1514
36.6492
38.889
47.0233
50.9459
53.7707
42.1902
44.043
40.631
50.4152
48.3797
46.5882
43.5802
36.1025
36.0965
36.0804
34.783
34.491
33.2227
33.6242
34.1738
33.4097
32.4334
32.5202
22.1986
21.5335
21.2092
20.8113
23.3386
22.8257
21.0667
22.5191
21.6902
20.7524
19.9564
20.2481
22.0133
23.4251
23.6088
20.7627
20.2092
22.5708
19.6343
33.8409
34.1319
34.0082
34.0012
34.7464
34.5798
34.3616
34.183
34.1809
34.5843
35.3465
35.0428
35.4799
-6.29908
-2.23777
0.12268
-3.74389
-1.68019
1.8356
1.62834
2.4422
3.13696
-1.45091
0.886481
-6.40277
-9.63419
-1.39972
1.94347
-4.41237
-2.22694
-10.1473
-5.42645
-10.9489
-4.03421
-8.97438
-8.97172
-8.82099
-9.02405
-8.73553
-8.81045
-8.99321
-9.31855
-8.77512
-8.53777
-9.15118
-8.97281
-8.76081
-8.69304
-8.72871
-8.90009
-8.63882
-8.63643
-11.4856
-13.1475
-10.2964
-10.4986
-10.0496
-12.1433
-10.9675
-10.7246
-10.5958
-10.9156
-12.5307
-14.6826
-12.6655
-12.5625
-10.6847
-8.66197
-9.93017
-9.55613
-9.1033
-10.5397
-12.778
-10.044
-8.28881
-9.07342
-8.62087
-10.6982
-9.41949
-3.00914
-3.31639
-3.55981
-3.52168
-3.80265
-12.3598
-14.5529
-13.0221
-14.509
-18.9673
-12.3999
-16.2643
-19.6411
-19.1857
-23.5665
-25.0855
-21.3904
-20.7644
-21.6752
-16.6374
-1.07817
-1.37728
-1.24279
-2.227
-2.01357
-1.89758
-2.11909
-1.64219
-2.00958
-1.54015
-0.784249
-2.01412
-1.80247
-1.35311
-0.422809
-1.17383
-2.16951
-1.57871
18.5883
16.6504
12.7899
19.7005
7.18775
-3.0866
18.907
9.3644
17.8688
11.9322
13.4136
-15.9006
-7.70174
-26.0136
7.5911
7.08538
3.92662
-5.27707
1.31378
6.0173
-17.4678
-17.0452
-17.1293
-15.6242
-16.01
-14.8795
-14.7464
-14.5536
-15.9383
-16.1674
-14.1735
-14.8357
-15.3355
-14.4315
-11.1528
-9.39731
-10.2388
-12.0416
-7.51036
-8.23728
-9.72892
-12.1103
-9.5203
-9.14411
-12.0124
-10.7425
-6.74655
-7.47097
-6.68511
-7.28959
-7.35535
-7.6606
-5.26619
-6.35635
-5.46391
-8.18603
-11.675
-6.85919
-12.9951
-11.3179
-13.1155
-12.5618
-2.26219
-2.99111
-2.59866
-4.71114
-7.2244
-7.87113
-9.70859
-9.85165
-4.03194
-7.18463
-4.48723
-4.68709
-0.53717
-2.16051
-2.48915
-2.28192
1.31182
1.031
0.0628237
3.06317
3.10676
-0.476615
-2.77714
0.011497
1.13097
2.77781
3.36315
-1.19423
1.17694
0.899944
-0.564589
0.562668
13.5053
14.1311
11.2038
11.6373
14.1861
12.3532
11.8558
12.4618
12.9608
12.4643
11.4063
12.019
12.1534
11.2034
14.0355
-9.01413
-5.38473
-6.27372
-8.27682
-9.76048
-8.36143
-5.44924
-8.80328
-5.32271
-4.97461
-5.74534
-5.6803
-5.72858
-6.17708
-6.14563
-5.37782
-6.03223
-6.20622
-5.58835
-6.3578
-7.04808
-6.64713
-5.45675
-5.53849
-6.72232
-6.57883
-6.72066
-5.82862
-6.46747
-5.37128
-5.86842
-4.98184
-6.27904
-5.88808
-6.41283
-5.68859
-5.42036
-6.03193
-8.17307
-7.93114
-8.44983
-8.21522
-8.02321
-8.43358
-9.02713
-10.3212
-9.67079
-9.06089
-8.69478
-9.36505
-9.30492
-10.122
-9.62757
-8.8529
-9.28287
-9.59412
-1.31523
-1.17263
-1.17373
-1.31397
-1.45486
-1.49155
-1.12107
-1.17032
-1.47616
-1.52086
-1.29573
-1.62744
-1.97663
-2.00621
-1.18984
-1.63112
-1.45817
-1.33296
-1.98937
-1.86407
-1.46815
-1.25392
34.5901
34.2347
34.7117
34.3426
33.7727
34.4408
34.9559
33.8416
33.9696
33.8667
33.2931
32.9915
33.2133
34.2106
33.7157
33.4688
-15.9493
-14.9828
-15.0038
-15.7679
-16.2638
-15.9464
-13.8782
-13.9596
-12.8561
-15.3261
-13.8585
-13.5739
-15.1669
-13.2156
-15.925
-14.6529
-15.436
-16.8468
-4.22552
-4.11269
-3.62785
-3.49123
-3.96843
-3.91132
-4.08406
-3.56022
-3.7262
-3.3959
-4.31841
-4.35373
-3.93104
-4.43345
-3.88933
-4.34547
10.4428
11.1712
12.886
11.3009
9.96534
12.2061
10.646
12.6578
13.1682
11.377
11.8845
11.4971
11.2657
12.8792
10.7418
9.44834
10.7814
9.2035
9.61888
10.645
6.3554
4.59215
1.96495
1.68123
0.286025
0.151792
4.13367
-0.966869
9.97189
8.70497
-2.60093
3.46294
8.32481
6.89249
0.471938
4.12042
-12.0099
-11.9136
-11.1968
-10.8233
-10.9738
-10.8858
-10.7994
-10.8767
-10.5659
-9.71946
-9.68454
-9.99563
-3.38461
-3.25995
-3.47237
-2.99505
-3.18557
-3.39481
-3.49802
-3.60333
-2.95739
-3.05544
-3.12009
-3.06976
-3.64102
-3.20955
-2.93874
-3.04304
-3.37219
-8.06764
-8.26417
-7.84547
-7.86004
-7.91342
-8.30966
-8.2418
-7.87143
-8.20631
-7.89994
-7.87795
-8.04314
-8.3558
-8.62817
-7.94317
-8.23812
-8.67551
-7.85533
-3.78454
-5.7924
-4.99329
-4.20969
-5.80599
-5.57314
-3.57632
-4.18309
-5.791
-2.95642
-2.73254
-3.8038
-3.11741
-3.89393
-2.9203
-3.18751
-3.53385
-3.99188
-5.01355
-4.49952
-6.14395
-6.04179
-3.27032
-3.42951
-5.10748
-4.81153
-3.74157
-4.18113
-5.65986
-5.55157
-4.27002
-4.02338
15.4892
15.1539
9.63964
12.5081
14.4043
15.2183
15.0646
13.748
10.8352
13.7351
10.5778
13.1277
12.9977
11.5301
34.9339
34.5609
33.4504
33.6563
33.6754
34.0223
34.6842
34.3876
33.361
33.5788
33.4486
34.147
33.9636
34.5128
-1.43176
-1.33497
-1.79701
-1.76708
-1.628
-1.83062
-1.54603
-1.72098
-1.4897
-1.87154
-2.03487
-1.97579
-1.46475
-1.58392
-1.91012
5.90183
6.36713
9.06177
9.0914
5.8247
7.00271
7.07127
7.59572
8.81134
9.08163
4.97783
5.24638
5.76174
6.39318
7.66065
6.19843
7.02814
-8.35343
-7.77771
-7.06011
-7.44925
-8.92174
-7.92371
-7.01685
-8.21794
-7.95717
-8.85703
-7.44452
-8.27813
-8.01786
-8.30396
-6.95739
-6.91385
-7.69846
-9.10935
-8.16643
-7.12068
-8.12911
-6.67006
-8.56568
-7.68074
-7.8353
-8.35662
-9.773
-10.3511
-8.59863
-8.42937
-8.31008
-9.80967
-9.25059
-9.54438
-9.13839
-9.87894
-8.97647
-6.36834
-6.42779
-6.34243
-6.43011
-6.16203
-6.19956
-6.04319
-6.1853
-6.04681
-5.74671
-5.9139
-5.97348
-5.91462
-6.22859
-5.80647
-5.90004
-8.26619
-8.28236
-8.38175
-8.42698
-7.79118
-8.44027
-7.65463
-8.42301
-8.29325
-8.12657
-7.83833
-7.72632
-6.98192
-7.39075
-7.15281
-7.80365
-7.92085
-7.86885
14.0736
14.0981
13.0736
12.7308
9.93577
8.13645
15.0961
14.2782
7.31937
15.2688
12.7825
11.3763
8.80342
11.5193
13.672
14.3237
13.0058
9.12148
10.3802
9.9711
8.04001
8.03416
9.30705
9.99479
8.72735
11.5837
11.4388
11.5798
9.95182
11.3282
10.4814
9.02881
28.5506
27.9244
27.2292
28.2667
29.498
28.1737
29.708
29.7344
28.273
27.524
26.613
28.1688
27.0244
30.8557
29.8452
-4.49961
-4.22578
-3.9519
-3.38809
-4.67058
-4.02394
-3.53292
-3.28243
-3.98032
-3.65027
-4.10295
-3.102
-3.35899
-2.65191
-2.96289
-3.48654
-7.52412
-7.4441
-8.19815
-7.32875
-7.49083
-7.47432
-5.7876
-7.38387
-7.39124
-7.72556
-5.58699
-6.0683
-6.67626
-25.3862
-18.9049
-17.1999
-11.3828
-25.3641
-30.7924
-6.62729
-14.1183
-10.7234
-16.3015
-17.778
-22.5018
-19.895
28.4017
27.326
31.2245
28.5675
29.9213
31.4867
29.4536
26.7939
24.6163
25.8953
28.5221
30.035
29.0242
20.6185
22.5482
28.8886
28.4375
22.2801
20.7482
23.3478
9.44792
9.31765
9.12325
8.22291
9.20784
8.58076
8.26401
8.93687
9.24545
9.19682
8.74353
9.54306
9.328
8.89371
-2.52212
-2.0978
-2.23573
-2.4702
-2.1067
-2.58106
-2.70815
-2.71892
-2.44822
-2.57013
-2.75288
-2.84074
-2.70604
-2.07776
-2.15408
-1.96859
-1.9273
-2.37418
-9.63981
-9.56804
-9.64128
-9.86304
-10.7506
-10.7078
-9.51752
-10.1789
-9.68143
-10.2662
-9.28854
-10.028
-10.5773
-8.67489
-9.48723
-9.05551
-9.996
-10.3103
-10.1746
-9.89302
-3.58073
-3.14403
-2.91918
-3.3234
-3.31933
-8.94831
-8.5021
-9.93485
-9.29812
-8.56362
-9.40349
-8.50234
-8.86984
-8.93312
-9.38775
-8.42198
-8.84541
-8.45053
-8.28713
-11.8782
-11.5334
-11.943
-11.3823
-11.8742
-10.8405
-12.2512
-12.1974
-11.6185
-12.3945
-12.1021
12.9284
13.2782
13.3014
12.987
12.4149
12.2783
12.7154
13.1673
13.7241
13.7144
13.126
31.8865
32.5231
30.9476
30.8431
31.7022
32.9618
33.5332
31.9143
31.7527
34.2015
33.059
35.8317
31.905
31.232
33.0572
14.1212
13.3394
10.3944
11.7641
11.2157
12.5973
10.9189
9.47548
9.66924
10.9682
12.6412
11.7071
13.0826
9.83976
10.3238
11.7672
8.1932
8.2198
10.2542
7.76577
6.48194
24.7579
25.7642
25.1826
24.1707
24.6753
24.0187
21.4144
20.4531
18.8234
19.392
19.7415
19.5736
22.5094
22.5241
20.5322
21.1543
23.4389
39.8536
42.0088
42.4334
39.8912
39.0191
40.7358
39.9632
40.6664
41.9987
39.2598
42.9322
39.7372
38.7655
45.4271
44.0195
43.9039
40.5736
43.6139
44.582
41.0164
0.0644599
0.801184
4.51142
3.36939
9.88908
0.604298
2.10366
7.33113
5.38636
7.86061
13.1223
12.5221
7.26139
10.7501
-9.79261
-9.72832
-9.62267
-9.51298
-9.68176
-9.77244
-9.55279
-9.40892
-9.52975
-9.34999
-9.39908
-9.27483
-9.29224
-9.21893
-7.53912
-7.2311
-7.14759
-7.48437
-7.05946
-7.47678
-7.10163
-7.55656
-7.29401
-7.4303
-7.3092
-0.11977
-0.084707
-0.378517
-0.399631
-0.780258
-0.123393
0.0365922
-0.415986
-0.20149
-0.467738
0.055493
0.0774377
-0.144884
0.0851977
-0.653278
-5.72943
-5.82479
-5.82637
-5.95201
-5.815
-6.02951
-6.17461
-5.89581
-6.06918
-6.59234
-6.63049
-6.45741
-6.46229
-6.06209
-5.86708
-5.90643
-6.04834
-5.92523
-8.53908
-11.6602
-8.18549
-9.6413
-8.33058
-11.3836
-9.81488
-8.78171
-7.41059
-8.42967
-10.4121
-7.2229
-9.22584
-9.98332
-9.1958
-10.353
-8.69708
-9.3295
-6.24566
-9.29115
-8.44796
40.6591
44.3168
42.9477
44.7719
40.5785
44.7502
45.8573
43.1845
47.056
48.8067
45.2836
37.2461
38.0182
42.5772
37.8638
3.71757
4.10016
2.10823
2.50629
4.39257
2.58324
4.89697
3.25099
3.14108
2.62289
22.4143
22.3694
23.0282
23.0368
21.5957
22.8467
23.4277
23.3024
23.3416
23.2657
20.7678
21.304
21.0505
21.589
21.247
-18.3179
-17.9892
-19.6414
-19.6211
-20.1633
-19.2817
-19.1509
-20.9604
-20.4415