/*--------------------------------*- C++ -*----------------------------------*\
  =========                 |
  \\      /  F ield         | OpenFOAM: The Open Source CFD Toolbox
   \\    /   O peration     | Website:  https://openfoam.org
    \\  /    A nd           | Version:  10
     \\/     M anipulation  |
\*---------------------------------------------------------------------------*/
FoamFile
{
    format      ascii;
    class       surfaceScalarField;
    location    "13";
    object      phi;
}
// * * * * * * * * * * * * * * * * * * * * * * * * * * * * * * * * * * * * * //

dimensions      [0 3 -1 0 0 0 0];

internalField   nonuniform List<scalar> 
146459
(
-2.01612
2.62405
-1.50057
0.892643
0.774594
-1.29493
-1.49579
-3.14392
4.90431
0.863663
-1.16694
-1.20239
-1.88855
-0.968081
1.54864
1.30799
-0.197786
-1.69077
1.69835
-2.28752
-0.705769
6.32989
3.18318
-8.13071
-1.38236
-1.90681
3.31919
4.91751
0.109435
-2.18649
0.866964
0.351443
-2.43404
-1.44322
2.72437
1.46179
-25.4833
47.2335
-24.4179
2.66769
-27.7749
20.1064
-17.8148
28.081
10.5844
-16.8359
-21.8295
54.7634
10.2453
-36.9276
-13.8944
-23.1226
9.24212
21.1471
-6.68573
-3.87699
52.2637
23.6469
-19.5009
-1.07927
-28.1751
-34.8676
39.9201
-10.4745
12.3863
-30.087
-38.3795
8.40414
41.2189
-9.36065
-19.4719
10.0362
6.21151
24.9712
9.8442
23.0781
-3.70576
-29.2166
0.532786
23.4379
-14.1265
16.4022
7.14182
-0.465941
-9.80239
9.12358
17.0811
19.727
-17.3734
4.78814
-11.141
22.2139
8.65412
28.6103
-17.1608
31.9061
-43.3556
15.3367
3.4712
-9.50325
23.5342
-13.4982
-30.3698
17.1268
-11.0622
-3.634
9.61979
-25.1019
23.7619
16.6767
-9.77045
16.5746
34.3323
3.79304
-14.3634
10.3475
9.55268
-3.41095
-4.19099
0.612281
6.98966
-6.19133
-3.79945
6.57983
7.29298
-6.83378
-4.65019
0.645156
4.29008
2.35774
7.74453
3.57797
-10.6773
-18.2994
-17.6487
20.543
15.4051
-17.9845
22.0164
-4.1476
0.115702
-5.34284
-0.303977
-12.3377
-15.7811
-1.54902
-0.969315
-11.8683
-5.44489
10.8593
6.4538
-3.96899
17.5503
8.4351
-16.1016
-3.05878
15.0128
-15.1678
-6.27664
-24.2389
4.46316
15.8067
-16.9225
-7.62035
3.08131
-17.3802
-3.34989
-8.78694
10.3617
-11.3435
-21.9515
-11.2098
-8.36018
-2.29289
18.0786
-7.42556
-8.14924
-0.746556
0.535612
-11.6901
21.5971
-12.1999
-8.44253
0.698586
-0.40529
9.3378
-1.08317
1.16835
-9.42298
-5.4119
6.30717
3.13805
8.97624
-8.92421
-3.19007
-5.61091
8.74896
11.0228
0.414846
-12.5208
-0.797606
1.51143
8.26241
-0.353235
-11.3029
12.8245
1.27989
-9.78926
-13.8696
1.3819
-12.9429
0.0437004
-1.09326
0.241529
0.80803
-0.876085
0.151306
0.768479
-0.25806
-0.520435
-0.0975901
0.00265157
-0.182135
-0.913775
0.770365
-0.616407
-0.484221
-0.530518
1.25627
-0.715757
-0.0265238
1.57251
-0.0227737
-0.317569
-1.23216
-0.0507857
0.812984
0.810308
-0.362349
-0.208872
0.330667
-0.71579
-1.45832
-0.549325
1.47713
-0.761352
-0.879106
-0.230453
-0.073703
-0.245169
-0.615542
-0.244549
-0.973264
0.456461
-0.63582
-4.18313
10.3352
6.79881
-12.9509
-1.94028
-17.2509
5.57817
13.613
-16.3576
10.2342
-9.85302
-23.7555
-6.43195
16.0636
-9.63162
-12.2766
13.7727
4.08214
7.87324
-24.1211
6.39484
-10.8353
9.01583
-6.41729
2.46318
-5.06171
-0.616211
5.58673
4.04531
0.137579
-1.26041
-5.29446
7.95837
-1.61444
-6.20636
12.1908
4.9678
-9.20027
6.44633
5.1283
-6.90958
9.37276
0.327675
6.91389
-8.50198
-9.55531
8.26855
13.2407
-8.27286
0.00431016
-6.54202
0.868175
-6.30157
11.9754
-8.99479
-4.62246
7.07524
6.04789
-7.00397
9.8642
-8.90813
0.150161
5.89773
-7.5054
-7.40617
15.7797
-0.301986
-9.27605
0.583244
-6.60355
-4.18252
-10.6577
7.33481
-10.7625
1.95755
-0.0512463
-8.67477
-2.03651
-7.63654
-1.69076
-4.54966
6.45339
-9.54027
5.49631
-17.0499
10.7694
-0.341341
-0.56386
9.26096
10.0004
-13.1789
-0.998619
4.42242
12.9114
-9.91191
-7.42193
10.6866
0.440704
-6.70493
4.43776
19.1603
6.52546
-12.0499
10.6647
-5.14017
-9.95438
20.9176
6.22124
4.92512
-23.1584
12.0121
4.72301
-10.5517
5.23137
-10.2182
16.8822
7.04021
-15.5071
-8.41525
-5.6634
16.2957
6.24985
12.2214
-3.93582
-13.949
9.45992
-0.400853
-2.01886
6.79931
18.9563
-2.23767
10.8864
-9.04956
11.0882
3.21799
-2.08481
24.0089
-6.12137
-6.53506
-7.79276
-2.08632
16.4141
-12.9042
-9.02234
15.3915
0.0284121
-7.82118
-12.8983
0.0225041
-1.15736
-24.5495
16.6845
6.56659
-19.6465
11.9226
-8.06641
12.5467
-20.4911
-10.1474
22.5721
12.5797
-27.8831
-5.18775
2.43231
-3.1372
-18.6912
-2.72107
-12.4111
-3.62445
-5.38887
-24.5813
-13.7564
-10.8939
-6.906
11.7163
-0.943933
-3.29892
-7.47343
-5.3426
0.125908
5.01948
0.197217
5.55633
-13.4207
2.5218
-9.41887
8.56023
0.984544
9.00068
-12.8632
-1.48333
4.03193
9.16769
-13.4999
4.69371
7.32285
-0.951708
-2.42852
-10.1197
7.4408
-3.36525
11.1972
-3.14826
7.02091
12.7366
1.29226
10.1805
13.0069
0.0926069
-6.23119
8.26997
-2.13138
-8.4616
11.3027
-2.74853
1.32442
-16.0172
-15.2437
-1.37178
13.7195
2.89608
11.9196
-25.839
10.5479
16.8685
7.76403
-16.3625
-7.56955
8.53524
15.9028
0.194482
1.19414
9.21482
0.893777
11.6606
3.25295
-0.030633
17.7807
-10.7423
22.3723
-5.83101
5.23921
10.4021
-9.81026
-8.04061
4.55321
-2.34361
-16.9543
5.52798
3.38567
-6.14552
-9.37484
20.7596
5.89502
-7.48733
-4.05056
-5.32428
-3.8575
1.65939
-16.7657
18.9638
20.5713
-21.2888
-3.14004
3.97836
13.1845
3.40849
16.3612
-1.73028
-12.9715
5.33733
18.8516
-7.82768
5.81461
11.8244
-13.6607
15.3895
3.94319
-19.2022
-0.130541
-2.10294
17.4925
-13.5812
15.7941
-1.39181
20.6951
-13.966
19.2495
-14.8267
0.819503
6.10579
9.67113
-16.5964
4.45259
6.78762
-10.4207
8.25176
7.14443
-10.9436
-2.91979
17.7574
-6.58587
11.5397
-8.35371
0.0511596
6.73646
9.72229
7.59365
-12.3843
9.40342
-4.61279
-2.54283
15.5807
-5.44421
0.159998
6.98443
0.987855
-1.83243
10.7101
6.89646
15.0638
11.8965
10.0895
-4.91883
-17.0672
-4.54732
8.8143
7.62955
5.54213
-12.2226
0.663393
18.0829
-6.52379
-6.79254
3.38428
-6.33431
11.8764
-16.5832
-4.83805
12.351
9.07028
11.1724
-6.74582
-21.0097
15.692
-9.0751
-15.389
8.77212
1.62221
7.84723
6.22256
-6.04011
18.5799
-20.7397
7.93306
7.15324
2.48395
-17.1042
7.46701
6.49552
11.5358
-10.8781
-5.86952
-17.4973
6.04052
17.3263
-21.0293
3.64233
11.5174
-4.89705
-6.09654
-10.0357
-14.8309
-7.56342
5.62053
7.03323
-10.1698
12.1161
11.5902
-0.0742626
0.0198613
1.36781
-5.08216
-6.67864
10.393
-8.89252
16.3008
-11.6602
10.2204
12.5213
-11.5846
-3.97761
6.67532
-10.6562
-1.45981
2.32086
-5.15487
-11.333
10.0049
6.48301
-10.1677
5.01281
9.22092
-2.34952
8.87575
-15.7472
-0.946763
7.47941
-16.2307
6.40179
7.07312
1.9025
-1.49621
-0.641427
-7.3902
0.113576
7.91805
-9.06281
-1.35548
9.77687
14.0582
0.540471
-3.48269
-11.116
14.8798
-9.88445
-1.91682
-1.26383
-0.243139
-6.26955
0.420556
6.09213
-9.22711
8.98397
-4.12775
-6.96113
7.7837
3.30518
8.53848
-12.6662
-9.09303
-0.134075
12.6985
1.06036
0.504064
-14.2629
-0.101804
12.8003
0.893164
-8.92584
8.95142
0.823205
-9.27057
9.42895
-0.57933
1.19329
-8.05422
0.591382
3.66111
-6.33785
-10.8256
7.9459
-13.0391
15.9188
-10.645
-0.180607
-4.79667
17.7456
-5.00305
7.35112
-7.66157
-9.40672
9.71717
-3.82766
11.1788
6.15222
11.1708
-10.2254
-7.09766
-4.49273
8.3204
-5.40027
-10.5817
-3.18475
1.31647
7.16536
13.8759
-17.327
-3.71422
-11.7395
14.1082
3.58619
-19.2118
-13.6516
-1.2727
-19.5106
9.44519
-0.914174
5.37169
-6.00188
1.54436
-9.0064
8.09222
-7.77297
0.29433
-5.10293
-5.78871
-1.98426
-8.13802
10.7126
2.36144
-22.0804
3.47835
1.23237
-5.83451
0.0458003
-10.1937
6.72062
-1.92396
0.90279
-2.93176
-0.505949
-1.41801
2.71971
-1.20815
-3.83081
2.31925
1.46024
0.36012
0.899349
0.865177
0.235261
-2.30859
-0.5535
1.41868
-2.11201
2.3615
-0.802987
2.89019
-4.76694
0.912728
-1.40481
1.50166
2.26464
2.20061
-0.715229
-2.5514
-0.922933
1.10944
0.293481
-0.704306
-1.82494
2.23577
-0.357788
-0.0064913
0.65776
0.108281
-0.00345227
-0.145308
0.0404798
-0.841329
1.61851
-0.668897
-1.68811
3.47597
-2.62919
-0.354909
-1.3332
-0.124036
1.61605
-2.19632
0.898487
0.521564
-1.4235
-0.119047
0.659746
-0.166655
-0.0764281
-6.2918
6.13862
-18.2686
18.4218
-22.1592
3.01081
12.8566
-2.47229
-10.7276
-8.95935
17.8347
-11.4842
-8.82282
11.3957
-6.00608
12.4451
-4.54145
14.7542
-4.0741
9.86505
10.6424
-2.52507
-19.6015
4.63627
-16.495
-0.774651
-0.998989
-7.8379
-19.3847
12.4728
-6.83086
7.3263
-12.9683
12.7405
-1.04232
-2.25342
6.88969
-17.1938
-5.07288
8.74551
9.06787
-1.58315
-0.0411575
1.23269
0.391616
2.16125
-0.340442
-3.40396
2.12009
0.0571943
1.83676
-2.2344
-0.715587
-2.40174
-1.36921
4.48654
-0.582176
-1.25926
1.12585
-2.98392
0.577715
1.22539
-1.74591
0.551152
0.972938
0.863823
0.829114
-14.3286
13.594
-14.0553
14.79
2.52563
-3.66928
-13.185
3.70957
11.7649
-20.5043
5.02981
5.99269
13.9503
-16.2334
-5.1815
7.70713
13.2228
-6.45688
-0.773189
-0.399871
0.451543
13.1711
0.0325013
13.9178
11.7974
13.5179
6.61588
-7.19217
-16.1078
13.5727
9.72732
-12.3505
5.3759
-0.217619
-2.86797
-4.13907
-9.10076
-5.12652
-10.0919
8.2102
-8.0856
5.2513
-3.29322
14.0464
-12.3874
3.54627
-5.20531
-9.28012
15.8388
7.48773
-7.45395
-5.96524
-15.9496
-3.89174
10.7398
-7.19348
-10.5462
-4.47746
6.93811
-10.9747
-4.69807
-11.6709
-1.89959
-2.52526
0.0121169
4.41273
4.77723
-2.15693
-0.296451
-2.32386
-2.91247
0.713851
1.49186
0.706757
-1.37969
4.12894
-2.74925
1.57422
-2.95391
-6.46251
0.758721
19.2364
-13.5326
4.30432
-11.3214
0.554574
-12.9358
-6.0107
19.7053
-10.5147
-5.33266
2.91156
13.9278
-10.8502
-15.4264
12.3488
15.4413
-7.52422
-23.9455
2.58057
1.35888
2.8162
-5.42024
1.24516
3.66907
-4.40859
2.09841
6.63221
-5.96346
-4.91934
4.25058
0.608901
5.57367
0.449636
0.517675
2.90743
0.717556
3.46919
1.17328
-5.17485
-1.41867
-3.01458
-0.220736
-0.471442
-3.88057
5.48662
-1.1346
-1.74614
1.99225
0.833512
0.226241
-6.23461
1.10282
-3.28389
-2.67802
-6.53939
5.33684
-5.64207
1.21791
1.17514
-6.91236
-0.850129
-0.800995
-4.88827
-5.38938
-3.70986
4.08401
-7.89247
-5.1906
5.41723
7.66584
-0.821683
-2.36839
-4.7024
8.36234
-4.28155
-4.90247
-4.64929
5.03602
7.9756
8.41876
-4.20566
-8.49465
-0.487452
4.25692
9.79951
-3.55557
-8.61233
1.43578
3.17313
10.6365
-0.183232
-7.61633
3.41902
-1.04879
-10.7732
-11.6177
7.01338
2.89108
-6.37464
1.70168
5.36698
-7.81757
0.748917
-6.13467
3.98403
3.85232
-14.5424
-0.375891
8.01007
6.90825
-5.24759
-0.870991
-8.42385
8.39521
-1.39519
-3.04117
-3.95885
-5.07968
7.34021
-10.1397
4.6841
-5.32436
-10.0629
2.38848
-3.10524
6.08374
-2.65395
9.02646
8.50874
-4.26675
-5.63718
-1.95043
2.64159
-11.9299
3.94133
0.060443
7.92809
-5.60876
-7.19209
9.29745
-1.46616
-6.89937
6.54973
-2.71319
-8.10328
4.20262
0.396673
-5.01314
1.72396
3.34962
-4.84929
-5.77261
2.82135
-9.02864
-15.1842
12.5125
15.4018
-12.7302
-2.4297
-17.5249
8.6162
11.3384
-26.6597
10.1767
14.0533
9.13069
-13.4504
-13.2052
-9.81258
-7.71642
0.506544
-12.34
-1.09551
12.9289
-0.924411
11.2679
-9.83698
12.8884
-13.5987
-0.214041
-11.3636
10.1417
9.8381
0.593228
-1.73543
-14.042
-16.0929
15.6187
10.6509
9.70073
-11.8832
15.9408
-12.865
-1.06964
2.19597
-2.34809
-1.30013
17.7795
-14.2834
-0.0494041
-2.04445
2.0429
0.0509568
-0.246182
0.196778
-2.11849
-1.29799
0.139881
3.27659
-2.36467
-8.54493
-2.3881
5.96725
4.96578
0.224437
-1.50861
-7.26075
3.48692
-2.34682
-3.50476
-0.142158
2.33109
-6.75388
3.90838
0.457396
-1.14205
-5.38739
0.244405
-0.455126
0.407499
-2.9421
-0.145464
2.32824
-4.31056
-0.40376
6.22885
3.35916
3.90977
8.44931
-15.3345
2.97545
8.65634
-11.9473
7.20077
-18.7807
-5.69562
11.4856
12.9908
-15.9474
0.102543
-2.93583
-6.46458
-12.2247
17.1763
1.51297
8.35523
-4.83739
-9.98243
7.79024
-7.49547
8.15454
-0.194112
16.6407
-9.39303
-1.52495
-1.02936
-16.3723
11.0849
8.65765
-24.58
14.9699
-16.1097
7.53797
-14.8277
0.317391
17.8079
-2.73547
10.5144
-5.10763
12.4011
21.8059
4.57322
3.91105
-7.11349
-5.40988
12.4526
5.46919
-8.25234
-9.66944
3.71592
4.86776
3.86892
8.69478
-3.30271
-1.48102
3.42753
8.44037
-1.24891
-3.7252
8.40164
-2.59283
4.23499
-5.0516
-12.9408
6.37469
7.54098
-9.55145
5.72639
9.14108
-2.19938
-1.47252
6.97732
7.03153
2.89797
1.48652
6.71375
-10.2222
-2.63191
-0.913947
-17.5606
-13.079
-4.05283
2.09308
23.5242
-21.5644
-17.4728
0.201578
13.2184
-15.4808
-3.63323
1.64121
-1.80566
-12.7988
16.6975
-8.62462
7.02054
-7.41461
-11.5272
3.46098
11.2957
-4.53016
-14.4788
7.71324
18.2961
3.13739
-10.1378
-7.67926
13.1766
7.71341
9.77982
-6.85691
-10.6363
15.0163
-7.61379
0.310927
-19.5836
8.49083
3.41347
-6.66635
-14.2729
14.1391
-2.88986
-4.6438
-10.3846
-16.0309
-10.2913
6.64278
6.09371
-2.44522
7.72119
-12.9732
-5.03924
-10.411
13.345
3.03227
-5.96626
11.5672
-16.5353
-5.44285
3.00949
0.0526555
8.50502
12.5568
3.79766
-14.0104
14.2978
6.35534
0.0920624
-6.38125
7.64242
16.2497
-17.7596
-6.13253
14.7622
-7.02775
12.0286
-2.90258
1.97568
10.762
-0.180862
16.3706
-4.90103
4.78014
15.6753
15.4576
1.58171
12.4225
0.948197
16.5916
-1.86449
16.8277
-7.89455
-6.86671
2.49899
12.2623
-8.89466
-2.87852
3.87863
0.799163
-10.5315
0.837706
11.1219
-12.1232
1.80045
5.29284
-9.58151
1.41015
-0.402674
4.65783
5.73877
9.37699
-9.82292
-5.70986
13.9476
-5.59365
-2.95337
-1.03449
3.46189
-7.41579
-1.63975
2.62219
-9.69183
-1.56296
-7.938
-3.90618
2.84793
-4.65161
-3.64565
2.41832
8.46745
-7.24012
3.20708
-3.61699
-3.23574
-2.18376
4.86923
-5.63884
-7.57434
3.26549
-5.93022
-12.1961
26.9916
-6.85157
-7.94396
5.12401
-16.3958
-0.924302
5.36264
22.3934
-22.632
-0.545422
30.0265
-6.43393
-23.0472
7.45838
13.8369
-34.5159
13.2206
21.981
-17.1638
5.09937
19.6887
2.20356
20.6729
6.81981
-2.46467
18.3315
4.8061
17.1642
2.35208
16.2586
21.2263
-8.22743
-8.74044
35.2994
25.1954
28.4007
-17.4524
8.00136
-1.98316
-10.3301
4.31189
-10.5783
16.633
1.94665
-12.5053
4.42145
-1.42961
9.5134
-5.33929
-12.59
19.7704
-1.84114
14.6606
-6.78074
-13.2192
-1.7671
3.92247
-11.0168
3.4754
5.55822
19.6021
-19.208
-10.7241
-9.64041
18.6642
-7.01281
4.55438
0.691338
-2.59386
-11.1997
-5.35514
-1.10725
-3.36446
-5.90901
-9.93457
-16.3197
8.63318
-1.95385
-7.4324
-12.2518
-4.21849
-7.04566
-2.78495
-10.7717
6.12422
-9.5973
4.04719
0.364924
1.67163
-7.18654
3.82066
7.41306
1.03674
0.803183
4.5242
-0.0737081
-1.62914
3.57324
1.31588
-3.22587
-0.876794
7.92333
-3.57834
1.38921
8.01403
-4.7603
-0.911198
-2.34253
2.81314
7.62456
-2.42366
-1.48439
6.86873
-1.14962
5.50958
-0.785533
-11.7105
-2.76794
15.264
-8.63032
10.174
-2.32926
-13.8829
6.40229
-2.33699
9.81764
-1.63793
0.10528
-7.09767
-2.24021
-11.1082
-10.1315
9.84921
-2.48567
-12.1606
-1.76639
11.7866
2.14039
-5.88055
-20.163
-3.72422
-0.00496197
-6.76844
5.92724
10.903
-10.0618
-20.0289
-0.619296
13.8798
-6.96406
7.73771
-15.1838
14.4102
7.04622
-19.8908
-12.2174
-3.2942
11.7874
-5.87992
-6.41129
-11.0511
0.763498
14.1254
-4.33982
-10.5491
17.8107
-4.83438
-12.2128
-5.17213
16.3021
2.99542
16.3298
-3.69124
-3.47016
11.8865
-13.2507
2.38654
7.95811
-13.8148
0.0770981
-12.6923
1.43859
11.1766
-7.14275
0.752931
6.46692
-2.13104
6.87475
7.12111
7.07768
7.18876
16.2345
8.14758
-10.1009
2.37571
-7.10994
-6.07602
8.67261
4.59218
-13.9628
-3.12156
11.0083
-3.43947
22.2007
0.209016
-4.95409
-17.4557
13.9155
-1.35503
9.64024
5.16338
-11.4325
20.1847
-3.80784
17.6051
-8.12286
-5.67444
21.1527
-12.1467
-12.8139
-22.6018
29.3026
-6.49178
-5.46685
-13.1704
-3.96455
-7.88404
-1.66878
14.7162
-13.4753
4.23622
-8.60427
9.68504
16.5244
5.88406
6.66436
-16.1294
8.53812
-5.43136
-19.0847
8.38671
2.26261
-19.8406
5.74209
-11.6023
0.468593
17.4015
-17.1911
6.87088
10.7888
-16.9158
14.8871
29.619
-25.6352
-22.6823
18.6985
-1.88486
15.9781
15.5257
-4.23886
27.1675
-10.7247
-12.204
12.3728
-24.1694
29.5774
-17.7808
-16.6336
3.37121
15.2505
-32.0483
14.9129
6.9865
10.2722
-41.4282
-20.0774
10.4302
-14.2719
25.2836
-0.504865
13.9963
16.2277
-29.7191
-12.2333
9.7624
28.9884
-26.4947
7.77859
-26.8468
12.0701
-10.0918
45.5244
-27.8964
-3.10515
-14.5229
25.2138
30.1243
-9.81367
-21.438
28.1253
-19.9078
13.2205
-36.9397
-12.3947
46.8402
6.49891
-5.37651
-30.8819
-0.681324
12.9749
8.89713
-41.7798
-19.7984
-20.2454
25.4192
14.6245
-15.4716
2.89537
-7.22216
24.1926
-30.5016
25.5508
-19.2418
26.421
10.7464
-3.97153
-26.9476
25.5426
-2.08911
-34.341
5.92848
-24.6978
0.455935
3.99653
-23.0781
-17.0913
21.5268
4.47992
31.649
16.2989
-29.1388
3.96225
9.11927
-1.60332
-11.4782
-11.9826
11.485
4.45981
5.74311
-12.8172
-4.90845
-8.75085
14.7211
2.1487
-8.11898
11.2922
-16.5878
-3.45522
-4.52275
-2.4326
18.4403
-3.71128
8.3078
-1.08782
5.64017
10.1688
6.49306
11.3987
-3.50691
14.6063
-6.60109
-0.358628
2.72563
4.23408
-3.76869
0.190684
-3.02308
2.37173
-1.58114
-4.55928
0.828876
1.18422
-0.466246
2.39552
-1.1004
2.46243
-1.20487
-1.72381
-1.29552
1.58152
2.10951
1.31721
-0.150299
-4.96733
1.95954
5.73342
-2.68589
-2.09076
0.572209
1.46631
-3.61965
2.68339
-1.30765
0.170808
-1.54655
0.809643
0.626038
1.24771
1.56367
-2.19633
-1.70692
1.31057
1.20599
-1.45089
1.03741
1.59037
1.59676
-2.81634
-3.97379
2.45689
2.14294
-2.20622
4.57584
-0.159402
-9.7059
-10.3418
24.2095
-4.16181
-15.2569
-18.1784
23.7294
5.81868
7.9245
-0.197017
-13.5462
-0.30752
-9.13072
6.4962
-8.91352
-12.6937
1.95457
25.3011
-14.5621
-0.896337
12.4122
-6.34116
16.4405
-10.4068
8.50755
-15.0457
8.23629
-16.7158
7.58317
-6.14194
-7.38746
15.484
-9.24334
11.3377
7.94091
5.50826
2.99131
-4.26551
-5.95409
7.35485
-16.8002
0.202019
7.9083
-12.5582
5.79022
-4.0492
-1.84514
0.104115
-1.51157
8.37922
-1.07743
-1.06665
2.57331
-5.89184
4.38517
1.39418
-4.47443
2.01361
7.24434
-8.09914
-3.1944
8.30608
3.84454
-2.61826
-4.69232
3.46604
2.23948
2.99924
-0.91696
-1.27923
-3.69564
-3.35557
-2.03582
-6.24174
0.267907
11.592
8.28068
-4.46451
-15.4082
-1.21475
5.67767
7.12912
3.4988
3.56713
7.90182
-0.743639
-3.65938
2.7871
5.38448
-12.6361
-12.4862
2.77401
17.614
-2.19902
0.00810025
-10.2952
4.37622
-7.78939
6.20027
9.45389
3.11213
-7.18154
4.39973
10.7318
10.2651
-10.5892
-1.87497
17.4389
-3.10083
18.8746
14.8958
0.479198
-34.2495
-0.0448674
26.258
-7.33852
-41.3636
10.1296
15.9358
15.2982
2.36821
-14.6218
-29.1101
42.7283
-12.2419
-28.1181
28.4415
24.4164
42.7595
-40.1057
2.6949
28.5515
11.5132
-11.9415
16.4524
-4.55574
9.65199
-21.1143
-28.211
21.7828
9.12317
14.0646
-16.0176
18.1883
-23.1581
13.9771
43.0159
11.97
11.547
-5.32874
20.7397
7.1661
-17.4526
8.95463
30.2807
-9.39427
6.00626
-12.9991
11.178
22.5608
-3.8263
2.37426
3.23178
34.1097
4.81459
6.81485
-27.1376
15.5082
10.652
26.7043
-32.5416
0.405428
19.8534
-13.444
31.9855
-20.9281
36.8096
-16.0782
5.97292
46.5361
3.04292
-21.9792
-27.5998
22.1747
18.0438
-20.3652
23.6497
31.9817
-23.6459
46.0777
-0.253235
1.12226
30.1468
15.267
-45.1291
15.3298
30.9216
-18.3588
18.0435
-44.8138
33.6524
-12.5656
-3.24067
15.1205
20.1018
18.7833
24.0538
12.4808
-4.69079
25.8624
10.9435
20.3205
-18.5253
32.0138
1.84124
19.0694
-0.618634
15.6646
0.155443
16.6952
-4.05075
-12.7999
-4.8262
20.7933
-15.8117
-3.41839
21.3703
-22.7781
13.0116
0.84305
-17.2731
6.14689
13.3829
-2.83458
21.7276
5.21265
-4.69966
14.0187
3.69255
18.6374
-1.9667
12.7198
-15.9275
-17.7255
-13.8856
10.5903
21.0208
2.91088
-19.6384
-0.997945
16.4094
3.80516
-0.911441
13.5157
14.8958
1.01451
5.81724
16.376
-23.2946
-1.1476
3.63795
0.572255
13.8232
2.99771
10.9867
13.4347
6.21718
9.91151
2.95963
-6.8522
10.4222
16.494
-5.4437
8.39658
-8.16976
5.21687
-0.223645
-3.69947
-1.52059
-9.97281
8.58361
-7.98503
9.37423
-3.19937
-12.4856
5.71214
-6.33424
10.8571
4.06071
-4.81717
-1.74072
-6.92555
2.06077
-7.76156
12.6263
5.1095
-1.17791
-2.35439
9.52466
-6.63894
12.6811
-12.9528
5.81754
-1.03451
-9.73132
-6.92093
-9.46818
1.45164
6.74887
-0.518858
-0.604468
-5.62554
17.7116
-18.7243
-5.76921
4.9478
-0.0816879
-6.20638
8.55252
-6.70334
-7.44798
5.59881
3.884
1.93841
2.73011
-8.89673
-10.852
6.96264
12.7861
1.72604
4.51925
-12.9486
7.57162
-14.7423
-9.61328
6.13896
-6.63858
10.1129
5.75746
-7.79912
-7.71811
3.1933
1.87492
2.64989
9.17564
-12.3745
7.0806
4.93923
-2.8442
4.88587
5.38803
1.98568
5.6467
-8.97107
10.3074
3.54952
-0.147837
-5.23173
-3.08826
16.3721
-8.0521
-26.5313
1.06516
14.0857
11.3805
-1.65924
-26.2571
1.38498
-16.043
-2.5344
13.3457
7.9138
-0.841696
-23.1151
-20.5679
9.9102
11.7229
0.108403
-22.3356
-5.43842
12.2604
-17.9176
9.94483
-19.2372
1.42792
18.1987
2.3466
0.883186
-21.4285
7.83159
11.8781
-1.51099
-6.98594
-4.55686
6.27888
5.26392
-13.7848
-8.59338
15.3923
-12.9014
13.617
7.11601
2.10057
-12.6554
-13.2712
11.3645
2.22021
-14.6082
-4.53524
18.5712
-0.418965
-3.38339
-18.0472
16.8737
-24.4127
2.97418
18.0552
-2.2021
-26.0549
3.84425
-20.9263
0.677068
-16.7043
15.1433
3.47357
-22.1797
0.253634
-22.8349
-14.3501
-17.2475
4.0036
13.7277
-0.483805
-8.23227
5.29439
-14.3096
-1.53209
6.46995
4.86461
-9.80247
12.2103
5.8624
-19.6048
1.23406
10.9152
0.0609755
7.12133
0.582675
18.599
9.08085
-15.3585
-12.3213
11.869
7.77571
-1.04574
-16.6189
10.7626
17.7253
-5.34632
-2.19174
9.18591
-12.5536
10.9937
2.19581
6.73173
-3.90014
2.4628
16.0245
4.4349
-14.8073
5.31117
-10.3938
4.20435
16.9521
-4.82492
13.3553
4.75974
9.07253
16.1548
-9.20277
26.6322
5.12988
10.1168
0.629544
-15.8763
10.3272
-11.7541
6.55675
-4.71509
1.16165
13.8807
-2.81129
8.21304
3.5038
-0.367976
-14.8899
-8.71229
-3.37699
13.2509
8.44778
-4.07936
2.64553
-7.01395
5.65087
8.02083
-4.32163
-9.35008
11.4925
2.78376
-8.62535
0.725244
12.1126
-4.81706
13.2135
-4.04049
-7.59846
2.38998
2.60209
6.07909
-10.4987
9.72384
-6.68004
8.29393
-1.06498
6.57081
0.899975
-5.10364
-2.36714
1.83394
2.90297
1.8339
-3.84797
2.42112
3.26078
-1.00537
-1.94262
4.19835
7.13238
-8.42775
-2.27429
8.35473
-3.65932
-3.76508
9.35738
-2.95925
-2.63305
2.09234
-5.57672
-0.280697
3.20503
-1.94757
-2.26283
-5.60965
6.54039
3.17478
2.14712
4.03548
-6.61493
4.18006
-6.47017
-6.8198
-4.97309
4.7096
7.0833
-9.09346
1.04072
1.23294
-2.41537
-2.9178
0.360076
6.87589
-8.41778
-0.873474
5.88891
-8.53855
9.52553
-6.37338
16.9719
-4.40481
-7.60645
7.0968
-8.83781
2.78174
-5.58736
6.31078
-8.45162
0.0430612
-0.00922203
-4.09102
-10.0349
-8.86401
0.0452254
-0.0190244
13.4525
-0.345447
-11.3793
-1.7277
16.5021
15.666
-19.8476
-12.3205
4.05275
10.8904
1.55897
12.1033
5.40191
14.4197
2.97535
-1.7291
13.0747
12.2354
23.9372
-12.1808
-3.65912
-8.09733
0.480113
-1.9168
25.3739
-15.0497
-0.664654
16.1945
-15.1272
22.6451
-14.738
-11.5662
-1.1216
21.8499
23.1983
-17.0061
-6.45562
0.263352
0.61313
21.4636
10.827
-13.5103
-14.3227
15.5445
-1.74221
-1.0807
13.4908
-6.46099
-14.7326
15.077
13.1238
-0.25063
2.79713
-15.6703
1.83694
13.8083
-2.52141
21.7069
16.6147
-22.9883
-15.3333
-3.12433
10.9314
13.8998
5.1068
8.38359
11.7543
2.42214
-14.4271
-1.56201
15.1533
12.145
12.5946
3.13719
-23.3283
-19.4976
6.89859
11.601
0.997983
-12.7843
-1.06608
-5.64724
1.12116
17.2388
-6.21496
15.121
0.0182671
-12.0021
10.2629
9.96488
2.86073
-13.2229
-18.8761
4.91449
20.8602
-13.1005
-6.84166
16.2986
-10.2215
-0.824548
0.704385
-0.844509
0.964672
0.552179
-2.04776
0.671028
1.54697
-1.68191
0.687116
0.210512
2.04084
-1.59534
0.000831574
0.749994
-2.03918
-1.60391
0.626925
0.900478
-1.52657
0.576018
2.30547
-2.25456
-1.75139
2.53792
-1.04171
-0.439647
-0.693798
2.17515
1.78799
-0.920376
-1.90932
0.83662
-0.786374
1.73774
0.864832
-1.16716
-1.37958
-0.04994
1.25597
-3.34351
-1.22286
-10.3473
14.5376
-15.3919
11.2016
7.67563
-0.146134
-17.8768
1.00572
-3.21369
9.8836
-4.46741
20.0107
-24.6086
-1.01524
5.29
20.3338
-13.5448
-1.51175
-9.55206
1.61488
-5.24437
-11.7624
-3.23657
-15.5522
14.3214
-18.391
14.1392
-11.9467
-19.9891
18.0595
-11.12
-8.45124
20.1358
-9.95774
-3.97961
-8.26601
-0.796659
-2.05737
2.98853
-16.9945
5.73992
-18.9159
4.49154
7.44971
-11.9412
9.17139
-8.26283
3.58298
1.77485
-2.74416
8.41902
-1.16284
12.1091
1.87991
-13.8212
-7.35912
0.976196
1.25528
-18.0467
1.85026
14.9412
-15.7521
2.98747
14.0199
-22.1083
19.7374
1.84925
0.521621
-2.2322
0.264916
-20.141
-3.24745
4.9381
-19.4296
0.430103
-10.8971
12.7217
-0.771708
1.27222
-7.85963
1.51855
-16.1114
-14.5233
13.6294
14.2484
-14.962
1.57432
-1.19136
-17.9733
-10.8162
1.13514
7.23032
1.4837
-9.84916
2.4193
0.215508
-13.5231
10.8883
16.7114
9.35242
-18.9776
-7.08628
-9.48234
14.7239
11.4698
-6.87504
8.92814
-2.71163
0.658527
-9.08579
2.50812
-0.29737
15.1483
2.75455
-15.4836
-6.48293
12.5455
0.753453
-4.48184
-9.89309
10.3421
-2.87063
2.42166
2.43807
-12.1157
-3.27301
8.39863
4.22679
1.50505
-18.0445
-7.22383
8.2042
-9.79107
1.10873
-3.71061
12.393
-7.98792
-24.5009
22.6978
2.33731
21.4055
-13.4264
-10.3164
-12.2409
2.34428
3.85876
6.03785
-12.8715
-15.5841
16.2147
-21.9646
1.10525
-6.96656
10.3666
16.0906
-19.4907
-3.47542
-2.38241
-7.31928
-8.85418
18.5108
-8.76848
-10.3597
11.8089
-7.24252
0.818322
0.671977
0.840489
-11.9774
2.28967
-8.53437
-10.6856
-7.45395
6.28618
-7.68204
8.84981
-10.9303
6.48081
-3.00444
0.214092
-10.9564
12.3969
-1.65465
-9.68713
-1.0291
-6.16371
-3.65854
16.1084
-6.24786
6.56497
0.226714
-16.1734
9.69881
-22.1602
8.62054
13.7664
-0.92628
6.96223
-15.7231
7.446
-19.3287
3.82871
-13.0399
-6.78399
-11.5475
-0.293909
5.0088
-10.5661
15.5281
17.4282
-16.7662
6.56817
47.5787
-29.0438
-1.74208
-16.7927
1.33703
21.5789
24.6627
-33.6105
-2.74637
23.7912
12.5657
-19.8231
-42.8313
-25.5587
12.8507
14.045
-17.2372
-10.0636
-26.9115
14.0704
10.0947
-12.1723
8.9428
-23.682
0.553122
-32.5485
8.63853
36.7316
10.1693
-14.7008
17.3822
-32.6016
29.1096
17.5624
-5.59624
-18.0626
16.2634
9.88247
-25.5927
25.7936
-6.9858
14.0932
-15.0671
-2.63044
2.0229
19.0158
-14.7296
2.03232
14.353
-6.92667
3.29641
-14.9181
18.5484
15.904
-18.2608
-1.12588
4.68629
-7.07705
18.2948
-11.4656
-0.396814
-10.8824
22.7448
-1.76207
-16.6302
-2.91013
22.4763
-5.65356
0.704315
-13.3116
-10.12
19.4574
-9.73421
3.32069
-15.2027
-19.5527
17.2198
2.50172
4.16288
15.889
-22.5536
7.67737
24.7063
-29.8819
13.2934
-9.29268
10.3792
17.2409
3.34145
-1.12498
22.0081
7.80497
6.65448
-26.3426
11.1114
-16.5116
-6.18501
9.1818
8.34159
1.4003
18.7145
-9.00341
10.3364
9.78739
-13.4694
-6.5573
18.294
8.66019
3.8693
11.5568
7.10793
-10.0045
-0.888288
9.60603
1.94126
2.23337
-15.2132
11.0385
15.2808
-6.65345
6.92527
-15.5526
-4.4987
-0.991716
20.7712
-12.7826
3.5031
-2.09911
11.3786
4.11867
-14.96
-4.41497
14.9248
-15.0086
-9.92097
-3.82885
12.7581
-16.5945
0.0200943
21.3575
-0.929915
-9.97027
-10.4573
2.14337
2.20735
17.0068
17.6969
-9.2417
-9.38516
4.48255
15.3578
12.9255
4.01625
-12.8231
-0.165879
-0.46006
-12.7041
17.1804
-4.20587
-12.229
15.9748
19.3895
-11.72
-17.6398
17.1819
13.8875
-13.2338
-13.6925
14.1591
10.0533
-19.8202
-4.39227
-7.25327
12.1604
9.25198
6.36373
-3.56371
-15.6626
4.06626
12.29
-0.693689
-17.427
-11.9504
13.7147
2.25773
-14.5791
18.6851
-4.4493
-11.7137
18.4208
3.68523
12.5415
14.2874
-13.1448
-5.59193
19.8542
-9.92924
4.36249
4.41616
20.9633
-5.52533
22.9207
-14.8193
-9.98037
-2.2215
-4.33119
16.5331
-15.4379
14.867
-9.40945
9.81324
-6.91984
-2.8934
3.44398
-0.760778
13.7911
-16.4743
0.0921319
13.1651
9.17618
-4.6786
-6.71908
1.51732
6.59536
-2.36202
-5.75065
8.98412
-7.46681
2.06428
2.39705
-12.9375
9.77972
-6.72469
9.21387
-8.44422
-17.6407
19.3603
-6.37994
-18.4772
-15.4837
16.3202
-15.4465
-9.41065
-5.36635
-3.34168
-6.77564
-14.2175
-7.10304
1.78419
11.5971
1.41018
-14.7915
-17.4614
15.3344
3.91118
0.567133
-0.654565
-17.374
-1.53365
-0.099058
16.9671
-1.41999
11.4834
5.94122
-22.6621
18.5657
-1.84482
13.8404
-12.6516
4.75236
16.5189
-2.90955
-17.3115
3.70209
17.2566
-0.737699
-17.8237
-1.99106
19.7158
-0.710211
13.1306
5.59757
-1.45972
-26.8
-9.47234
2.41834
19.5074
-1.3981
0.456388
1.30086
17.4964
16.1006
-20.4699
-1.07649
16.4394
17.1165
-17.8067
-20.923
-18.5354
27.2261
12.2323
-5.69453
-30.5403
15.3119
9.56149
-2.59457
-25.5023
6.16407
34.4366
-13.3746
-29.1322
-10.5767
17.9444
21.7645
20.1449
-33.7908
4.82717
8.81874
-6.09495
32.4039
-30.3112
-4.58854
5.76763
-25.6882
1.45888
0.0241707
-21.2595
-4.45289
35.1915
-29.1104
-6.05694
24.0546
15.9641
-13.338
31.2976
25.4964
-36.9916
-1.84284
4.97563
-22.4534
-3.78175
-24.896
0.761168
2.60943
-3.91916
-3.10696
4.41669
-1.5356
1.30084
2.84419
-0.612801
0.258008
-3.56437
4.78861
0.0805739
-5.48198
4.3084
-3.83833
-4.37253
3.90246
-1.91454
3.28596
2.93698
1.33847
0.201433
-3.95919
-2.45303
6.53325
0.551657
-21.0197
13.9348
-5.74665
5.64259
6.63731
10.7141
-0.718868
4.37747
-14.3727
14.2002
6.85292
-20.5015
-12.5376
12.8302
16.9582
-17.2508
-1.35518
-11.1825
-12.1253
9.69757
13.1418
-13.4805
9.81905
3.66228
13.7084
-8.95945
2.10401
-4.482
27.0098
19.0454
0.90764
-2.86758
-14.4373
16.3973
-1.89931
-12.6991
15.5061
2.62506
1.42524
-18.2695
14.2192
-15.1397
15.8655
-15.1927
13.7503
6.39666
-12.319
-8.51501
-6.30245
-4.26866
-16.5156
5.64459
8.05336
-4.11136
2.35211
-6.29412
-18.6329
11.4936
-2.27004
-20.4742
-10.5711
-1.46874
-14.4487
-2.89142
-15.093
1.38747
-15.9765
-12.0751
13.0889
-13.5942
5.33879
-4.8334
-6.91521
7.16985
12.8342
8.43656
-2.51408
-19.5167
1.52135
9.37927
4.16775
-8.20823
19.3494
-2.80024
-7.65724
9.17859
-11.5324
1.54138
11.9536
-1.96252
-5.37134
-13.8183
-17.1942
9.30881
10.2531
-14.5664
-14.7405
19.0539
-0.336962
10.59
-0.56312
10.8354
1.57942
-11.8517
2.18913
-17.3187
9.4673
9.34447
-7.97639
9.13034
-0.768553
11.7141
-9.36609
15.5131
-14.0925
0.299091
13.4102
-14.1336
0.424327
4.24354
-6.89406
18.1636
-0.70378
-13.0346
12.9085
0.829848
8.42656
-3.65777
-0.0323172
16.946
-12.6754
-0.0270002
-0.265027
17.7689
-0.557922
0.59731
8.12834
13.2408
-4.61916
-18.8519
17.7864
-14.7805
15.846
-11.7366
-2.94279
-4.17252
4.99451
-1.69763
14.4895
-26.6067
1.79003
10.0362
-22.6754
-15.6679
-11.7175
18.1628
-1.45076
18.3877
-14.6416
-6.68883
12.033
4.65703
-19.8044
9.87691
31.2609
-8.3454
-32.9749
10.0595
27.124
-15.6675
19.1017
4.43995
-7.16841
-16.3732
12.725
5.21986
1.15679
2.00222
-33.023
-13.6626
13.9659
12.4217
-7.11233
-2.11035
15.8909
-21.0571
6.46919
12.39
11.0509
-11.8872
-11.5538
-6.03064
14.4993
3.92135
-21.4868
4.08149
14.6075
2.79782
-9.88106
-0.554785
18.778
-12.6383
1.80762
-7.94726
23.7682
-7.09727
2.10709
11.5022
0.145864
-23.5352
8.31549
-2.84393
13.6951
4.88571
11.2698
-22.6038
11.4799
6.90912
-8.27765
-17.6503
-16.8667
21.1571
13.3598
1.43985
-10.7746
-8.51768
0.0695228
35.1494
-22.2479
-12.971
32.4863
-11.9205
-20.4962
5.22622
15.7194
14.2037
18.1228
19.5897
-21.5106
-6.38595
5.64863
11.196
13.0047
-8.48135
-11.0188
2.2732
12.7279
-3.98234
-11.5197
-1.88128
2.3822
16.6705
-4.68695
-12.8879
0.904321