/*--------------------------------*- C++ -*----------------------------------*\
  =========                 |
  \\      /  F ield         | OpenFOAM: The Open Source CFD Toolbox
   \\    /   O peration     | Website:  https://openfoam.org
    \\  /    A nd           | Version:  10
     \\/     M anipulation  |
\*---------------------------------------------------------------------------*/
FoamFile
{
    format      ascii;
    class       volVectorField;
    location    "13";
    object      U;
}
// * * * * * * * * * * * * * * * * * * * * * * * * * * * * * * * * * * * * * //

dimensions      [0 1 -1 0 0 0 0];

internalField   nonuniform List<vector> 
75457
(
(4.96242 0.696499 -0.820887)
(5.13915 -0.164277 -1.04123)
(7.01637 0.808536 -0.680294)
(9.11003 0.360592 -1.05295)
(3.55257 2.06004 -0.0283185)
(3.63961 2.25894 -0.231438)
(5.32118 0.341813 -0.566662)
(5.04297 1.34938 -1.05222)
(10.0133 0.0390289 -1.26071)
(9.82018 0.273466 -1.0765)
(10.0133 0.45944 -1.03854)
(3.85036 1.56461 0.113164)
(3.89727 1.29841 -0.379154)
(8.65302 0.649313 -0.527147)
(11.918 -0.339476 -0.0676489)
(12.0115 -0.341278 -0.0566801)
(12.384 -0.420146 -0.236452)
(12.1608 -0.445462 -0.287319)
(12.096 -0.380389 -0.0883654)
(12.3924 -0.360675 -0.164963)
(12.2084 -0.416599 -0.2467)
(12.2829 -0.411834 -0.110377)
(11.9812 -0.370581 -0.0816947)
(11.9779 -0.379892 -0.11745)
(12.2604 -0.435806 -0.0998956)
(11.748 -0.424978 -0.256798)
(11.6989 -0.450047 -0.276267)
(11.089 -0.627488 0.248642)
(10.9195 -0.652619 0.353962)
(11.036 -0.638399 0.231117)
(11.233 -0.58839 0.216788)
(10.8403 -0.63502 0.31414)
(10.8513 -0.628054 0.333635)
(11.5543 -0.462134 0.241736)
(11.5345 -0.450097 0.213068)
(11.6781 -0.460078 0.388826)
(11.6074 -0.491569 0.269386)
(10.7913 -0.652173 0.374924)
(10.9243 -0.643893 0.379536)
(11.6013 -0.42105 0.255738)
(11.6312 -0.424477 0.271143)
(11.6064 -0.453073 0.279785)
(11.6494 -0.512666 0.392637)
(12.8632 0.399058 0.528504)
(12.6319 0.412514 0.471731)
(13.0316 0.406999 0.522815)
(13.0385 0.384492 0.544344)
(12.8341 0.423905 0.55904)
(12.3334 0.147467 0.0952892)
(12.5878 0.227273 0.179185)
(12.5988 0.232356 0.167495)
(12.4093 0.159216 0.134218)
(12.1083 0.176712 0.0350258)
(12.5119 0.220782 0.157517)
(12.6365 0.210068 0.21029)
(12.6374 0.21236 0.187062)
(12.209 0.232815 0.108423)
(12.2294 0.231305 0.0933278)
(12.2923 0.147904 0.0601467)
(12.074 0.168647 0.0226716)
(12.1553 0.205852 0.0767735)
(12.3881 0.157405 0.102733)
(9.92616 0.0569796 -0.290492)
(9.93457 0.0671915 -0.314787)
(10.1199 0.0909832 -0.246721)
(9.91982 0.0625404 -0.284979)
(9.9442 0.0571956 -0.266612)
(9.89241 0.0361382 -0.26293)
(9.91058 0.0424152 -0.202872)
(9.80283 0.02874 -0.224716)
(9.82053 0.00952466 -0.222702)
(9.76518 0.00305724 -0.234503)
(9.94151 0.0499546 -0.210956)
(10.116 0.0921222 -0.246812)
(9.92305 0.0493293 -0.190253)
(10.0941 0.0826071 -0.216614)
(10.0846 0.0741865 -0.205219)
(0.474132 0.843347 0.289813)
(-1.10521 1.09376 -0.806121)
(-0.727217 0.896325 -0.778204)
(1.43605 1.0923 0.507141)
(-1.16929 1.32269 -0.378456)
(0.397885 0.532328 -0.129446)
(-0.26017 0.529356 -0.50066)
(-0.601233 1.04996 -0.645301)
(-0.8626 1.20022 -0.81009)
(-0.0698193 0.792702 -0.960291)
(0.200863 0.642229 -1.19037)
(1.47628 0.705979 -0.315216)
(1.80929 1.05517 0.131689)
(0.238519 0.511873 -0.50242)
(-0.203818 0.498788 -0.763937)
(0.509866 1.14808 0.394766)
(-0.586549 0.78382 -0.187324)
(12.5124 -0.269891 -0.0177232)
(12.8946 -0.274996 -0.021434)
(12.8946 -0.278604 -0.0211481)
(12.9148 -0.278569 -0.0161393)
(12.2943 -0.26838 -0.0174748)
(12.5481 -0.266461 -0.0192759)
(12.5468 -0.277751 0.00470221)
(12.4074 -0.258008 -0.0170512)
(10.0177 -0.00988726 -0.0194198)
(10.028 -0.00913221 -0.0162446)
(10.0211 -0.0148798 -0.0218919)
(10.0213 -0.0194196 -0.0153702)
(10.0125 -0.0174119 -0.00653451)
(10.0241 -0.0172905 -0.00563605)
(9.85574 0.000759522 -0.0203036)
(9.93383 -0.0144454 -0.0148437)
(9.94535 -0.0181568 -0.0109135)
(9.90257 -0.0188435 -0.00157834)
(9.87135 -0.0257918 -0.0229223)
(10.7611 0.114784 0.0672101)
(10.7975 0.138225 0.187659)
(10.3947 0.0973206 0.113045)
(10.3843 0.0317454 0.0382947)
(10.7759 0.086684 0.2052)
(10.6488 0.151141 0.116367)
(10.5494 0.201614 -0.0211458)
(10.8632 0.106525 0.268686)
(10.8556 0.131234 0.277698)
(10.752 0.129189 0.271475)
(10.5554 0.153367 0.127675)
(10.4567 0.126017 0.0898877)
(10.5015 0.123271 0.142256)
(10.5547 0.166009 0.0564254)
(10.5003 0.0933293 0.150876)
(10.5398 0.0576756 0.0825741)
(10.6396 0.117105 0.229458)
(10.7343 0.11568 0.246729)
(11.3301 0.0055244 0.381073)
(11.4024 0.0788429 0.331091)
(11.4048 0.0552856 0.362292)
(11.3315 0.0331255 0.325026)
(11.3282 0.0188956 0.316874)
(11.3176 0.0791545 0.33501)
(11.2487 0.037648 0.313274)
(11.2553 0.0274587 0.360567)
(11.2043 -0.00800663 0.332108)
(11.957 0.0345521 0.188747)
(11.964 0.020468 0.209313)
(11.8552 0.0137701 0.243173)
(11.9679 0.0296588 0.158035)
(12.0011 0.0183139 0.178435)
(11.6983 0.0249799 0.121604)
(11.8719 0.00443437 0.250856)
(11.9053 -0.00601596 0.214621)
(12.8331 0.0436463 0.00978712)
(12.9259 0.0590267 0.0427872)
(12.6952 0.0239688 -0.0533127)
(12.7161 0.0925805 0.0240532)
(13.1295 0.0500723 0.141909)
(13.0747 0.0926956 0.186)
(12.8945 0.0574967 0.0842352)
(12.7276 0.0887684 0.0217906)
(12.6965 0.0759149 0.0691399)
(12.6358 0.0750233 -0.000629718)
(13.0515 0.0844148 0.173092)
(12.7196 0.0915288 0.0335669)
(12.7362 0.0374495 -0.00480136)
(13.0343 0.0837282 0.214157)
(12.6523 0.0813791 0.0675272)
(11.5431 1.08448 0.911339)
(11.2976 1.24299 0.901259)
(11.2086 1.30739 0.862002)
(11.3992 1.21729 0.814801)
(11.2646 1.11121 0.774658)
(11.7403 0.946752 0.87914)
(11.5789 0.758011 0.571679)
(11.4544 0.883558 0.699371)
(11.5828 1.27412 1.04128)
(11.4647 0.959378 0.677658)
(11.5695 1.07533 0.715589)
(11.8347 1.14617 0.918737)
(11.6612 0.935051 0.620825)
(12.967 -0.0658343 -0.069794)
(13.0898 -0.02648 -0.0854148)
(12.9852 -0.00315711 -0.037044)
(12.8054 -0.0316338 -0.0116611)
(12.8345 -0.0112073 9.78809e-06)
(12.6982 -0.0179943 -0.0404087)
(12.9366 -0.0658055 -0.0369886)
(12.8767 -0.0765335 -0.0130795)
(12.7365 -0.0841322 -0.000172107)
(13.0822 -0.0317835 -0.0989455)
(12.8234 -0.0345362 -0.0296842)
(12.9671 -0.0587265 -0.0554073)
(12.7208 -0.0304341 -0.0146541)
(12.6771 -0.0235778 0.00125574)
(9.96567 -0.0874813 -0.740282)
(9.40048 -0.254242 -0.903927)
(9.2417 -0.0783179 -0.99953)
(8.54617 -0.134851 -0.816966)
(7.97149 -0.225022 -0.898046)
(8.38395 -0.10802 -0.879438)
(11.6295 0.448077 -0.654721)
(11.4747 0.290648 -0.494971)
(11.5523 0.271191 -0.471486)
(11.6532 0.345503 -0.503747)
(11.7654 0.367389 -0.514)
(11.4041 0.245863 -0.219506)
(11.2558 0.376924 -0.145501)
(11.3038 0.370807 -0.116992)
(11.4381 0.417166 -0.247669)
(11.6844 0.426821 -0.261216)
(11.5254 0.346679 -0.067557)
(11.8651 -0.00192831 -0.0984649)
(11.9139 -0.014887 -0.040731)
(11.9576 -0.0220516 -0.0365785)
(12.1767 -0.0462837 -0.0627238)
(12.0989 0.000837885 -0.116042)
(11.7715 -0.0120842 -0.0587809)
(11.7781 0.0459073 -0.0841479)
(12.0856 0.00216457 -0.130979)
(11.9729 -0.0018946 -0.0827927)
(11.8497 -0.031292 -0.0244429)
(12.0807 0.00436798 -0.127945)
(11.7412 0.0152209 -0.0916314)
(11.7035 0.0043846 -0.016517)
(11.7189 -0.0017313 -0.0424804)
(11.7852 0.480277 -0.0285236)
(11.8573 0.500593 0.0135949)
(11.6897 0.480112 -0.0218796)
(12.0382 0.454749 0.0015391)
(11.8949 0.4393 0.0425458)
(11.7917 0.536737 -0.0303836)
(11.8612 0.539162 -0.00803465)
(11.8191 0.573433 -0.0525225)
(11.723 0.565492 -0.0274403)
(12.1221 0.523679 -0.0759223)
(12.1602 0.505473 -0.0664489)
(11.9117 0.541193 -0.0171724)
(11.8805 0.534639 -0.0353952)
(11.9448 0.53807 -0.00254515)
(12.204 0.00472756 -0.275218)
(11.988 -0.000486233 -0.300897)
(12.3801 -0.0535646 -0.281367)
(12.3264 -0.0374608 -0.224486)
(12.344 -0.0518055 -0.222473)
(12.4046 -0.0570107 -0.291918)
(12.1211 -0.00674386 -0.226345)
(11.9872 0.0231803 -0.265302)
(11.991 -0.00411539 -0.284727)
(11.9401 -0.00957611 -0.276262)
(12.107 -0.0249458 -0.301002)
(12.0869 -0.0143976 -0.213398)
(12.0963 -0.0084661 -0.199923)
(11.9601 0.000994937 -0.291822)
(11.9101 -0.00694302 -0.274519)
(12.0257 -0.00258212 -0.209499)
(11.9902 0.0181173 -0.266566)
(10.6261 -0.0768602 -0.024437)
(10.3721 0.0222577 -0.0971036)
(10.4834 0.0206892 -0.095052)
(10.4537 0.0391477 -0.0794266)
(10.7041 -0.134583 0.0032506)
(10.8465 -0.16331 -0.0183315)
(10.7358 -0.236113 0.143491)
(11.9114 -0.197184 0.150295)
(11.9806 -0.283249 0.141108)
(11.9253 -0.248672 0.145085)
(10.7077 -0.0889981 -0.000249551)
(10.6587 -0.182054 0.0538387)
(12.4806 0.249639 -0.135412)
(11.7719 0.159611 0.0155154)
(12.0188 0.122466 -0.204572)
(11.8602 -0.000388228 -0.105285)
(11.862 0.153815 0.033017)
(12.0977 -0.016945 -0.142984)
(12.0044 0.0203493 -0.125684)
(12.0042 0.15339 -0.0125204)
(12.2558 0.240335 -0.357208)
(12.1425 0.221928 -0.308892)
(12.4241 0.261436 -0.152424)
(12.1479 0.217469 -0.282207)
(12.4412 0.254036 -0.146742)
(12.4299 0.0532707 0.147955)
(12.3566 0.0158971 0.16167)
(12.5585 0.0797873 0.178614)
(12.4707 0.00883177 0.207419)
(12.4448 -0.00381858 0.212867)
(12.3673 0.0466382 0.134254)
(12.3758 0.0134634 0.151991)
(12.4474 0.0346304 0.176705)
(12.4228 0.0153113 0.186823)
(12.4565 0.0759601 0.142519)
(12.8093 0.162017 0.182516)
(12.7428 0.139657 0.174931)
(12.4591 0.0639959 0.144779)
(12.6772 0.133536 0.145615)
(12.6495 0.128905 0.141789)
(9.65515 0.118814 0.0202693)
(9.60181 0.0932909 0.0344595)
(9.42477 -0.00145563 -0.0124701)
(9.40949 0.00360057 -0.0146836)
(9.52462 0.0971929 -0.0199808)
(9.67638 0.0899786 0.00657773)
(9.69458 0.111209 0.00868301)
(9.4879 0.0461878 0.00213323)
(9.5728 0.0433319 0.00890163)
(2.66695 -0.12077 -0.0849354)
(2.56777 -0.0317697 -0.0393521)
(2.82629 -0.268904 -0.0705441)
(2.96249 -0.279998 -0.116034)
(2.74575 -0.212472 -0.053418)
(2.59104 -0.0615529 -0.126013)
(2.74898 -0.132978 -0.254491)
(2.90919 -0.309519 -0.201838)
(2.72279 -0.0827868 -0.179682)
(2.96829 -0.235179 -0.290331)
(3.2118 -0.350356 -0.242818)
(3.01207 -0.274049 -0.193412)
(3.18594 -0.358172 -0.198737)
(2.95807 0.0417931 -0.0135854)
(0.702046 0.397711 0.134746)
(0.379172 0.142872 -0.23573)
(2.62405 0.00701164 -0.179692)
(2.87268 -0.190535 -0.213218)
(2.43275 -0.229746 -0.168153)
(2.80634 -0.0708941 -0.153052)
(-1.14623 -0.0387513 -0.373747)
(-0.872912 0.527872 -0.0408425)
(-0.129484 0.308682 0.178098)
(-0.318404 -0.152291 -0.261925)
(12.6334 0.108311 0.140386)
(12.7454 0.13713 0.150494)
(12.7566 0.151264 0.140146)
(12.4827 0.181587 0.0677177)
(12.4102 0.171143 0.0528119)
(12.4501 0.114921 0.0805511)
(12.4767 0.147277 0.0720667)
(12.4117 0.166901 0.0546202)
(12.3336 0.156106 0.0571783)
(12.616 0.0983353 0.131419)
(12.6634 0.117065 0.117859)
(12.1944 0.061946 0.0408974)
(12.1713 0.0593696 0.0691343)
(12.2159 0.102239 0.0138029)
(12.3751 0.120825 0.0800069)
(12.1402 0.0556998 0.0523888)
(12.134 0.0541307 0.027953)
(-1.80667 -0.212771 -1.01163)
(-1.50539 -0.659988 -0.566029)
(-1.6308 -0.262391 -0.704985)
(-1.4675 -1.17386 -0.220981)
(-2.61931 -0.103461 -0.459671)
(-2.35191 -0.231863 -0.714049)
(-2.72053 0.189536 -0.613286)
(-0.892133 -1.20797 -0.352822)
(-1.84557 -0.534383 -0.747236)
(-1.89996 -0.781837 -0.138326)
(-1.87213 -0.838569 -0.220404)
(10.9347 0.170332 0.0435233)
(10.9648 0.179489 0.0125096)
(10.7286 0.12574 0.0107788)
(10.431 0.0395962 0.0536896)
(10.5535 0.134788 -0.0247066)
(10.3349 0.0615726 0.0274216)
(10.321 0.0577417 0.0132124)
(10.3379 0.0708489 0.0431064)
(10.6146 0.111259 0.049414)
(10.2167 0.00973224 0.0394449)
(10.5845 0.112193 0.0367753)
(11.697 0.189958 0.122336)
(11.6764 0.182723 0.0976133)
(11.7141 0.19891 0.124107)
(11.6867 0.176191 0.0895606)
(11.4878 0.175593 0.0576401)
(11.5595 0.191151 0.0863004)
(11.3101 0.222383 0.0378178)
(11.3928 0.229723 0.0538716)
(11.5507 0.218529 0.0781609)
(11.4145 0.206514 0.0560147)
(11.2302 0.21676 0.0021827)
(11.2993 0.225641 0.00836511)
(11.3819 0.163946 0.0442266)
(11.4419 0.175942 0.0529502)
(11.3453 0.185754 0.0496304)
(5.05489 -0.343994 -0.158257)
(4.41791 -0.221458 -0.275835)
(4.0998 -0.172197 -0.415304)
(4.4864 -0.0611508 -0.432593)
(3.55857 -0.0485888 -0.397914)
(12.2352 -0.0374883 0.50634)
(12.338 -0.0598935 0.504049)
(12.4705 -0.0780744 0.550291)
(12.4057 -0.0716476 0.548012)
(12.7278 -0.12657 0.546408)
(12.7022 -0.135155 0.562275)
(12.5232 -0.0835669 0.531822)
(7.92128 2.55819 0.0593215)
(7.47316 2.72512 -0.456555)
(8.85529 2.32882 -0.218083)
(8.71174 2.6052 -0.371049)
(7.95856 3.01992 -0.0107301)
(7.42151 3.05713 -0.546829)
(8.06389 2.29603 0.0788573)
(7.55293 2.40272 -0.545485)
(8.17426 3.07635 -1.19978)
(7.32181 3.12039 -1.26505)
(8.26264 2.18246 -0.022368)
(7.93634 2.19005 -0.611377)
(8.25661 2.7445 -1.11165)
(7.72587 2.70278 -0.935639)
(8.93006 2.23917 -0.223933)
(8.42246 2.49695 -1.04917)
(7.86662 2.4533 -0.876657)
(8.94066 2.29165 -0.422369)
(9.61566 2.11711 -0.268431)
(9.76955 1.95683 -0.34508)
(9.57334 2.00754 -0.569673)
(9.50008 2.10152 -0.65827)
(9.51371 1.81562 -0.563624)
(9.43358 2.12859 -0.651642)
(9.56388 1.95215 -0.143135)
(9.49522 2.12605 -0.192)
(9.41355 2.24686 -0.52522)
(8.98338 2.06766 -0.469803)
(9.2972 1.7447 -0.39182)
(9.28584 1.91666 -0.186476)
(9.00359 2.2582 -0.140917)
(10.1944 3.25487 -0.88769)
(10.5461 2.81552 -0.817638)
(10.9734 2.14075 -0.291961)
(10.8876 2.03314 -0.297124)
(10.337 2.5302 -0.803014)
(10.5634 2.52276 -0.720302)
(10.6999 2.25221 -0.442187)
(10.6774 2.1754 -0.451817)
(10.4505 3.25225 -0.733917)
(10.7837 2.9792 -0.594817)
(9.94817 2.88303 -0.824988)
(10.0247 2.97893 -0.80681)
(10.7506 2.66692 -0.222422)
(10.6621 2.46596 -0.201563)
(10.9678 2.39981 -0.279989)
(10.3991 2.2105 -0.523208)
(10.0888 2.67307 -0.469753)
(10.1615 2.80321 -0.497059)
(10.4718 2.76633 -0.253716)
(10.4597 2.62541 -0.282251)
(10.3911 2.90085 -0.41692)
(10.3076 2.55911 -0.349904)
(13.1591 -0.0597963 0.300198)
(12.9296 -0.0695963 0.270942)
(13.0071 -0.11382 0.282669)
(12.9341 -0.0664769 0.282471)
(13.0171 -0.113145 0.289536)
(13.2112 -0.0489683 0.321424)
(13.0626 -0.0409529 0.308585)
(13.2456 -0.0902771 0.2854)
(13.0137 -0.0647877 0.277309)
(13.1683 -0.0467208 0.308376)
(13.1579 -0.126918 0.276457)
(13.0596 -0.0530117 0.299708)
(13.2327 -0.109528 0.278354)
(13.0772 -0.0590957 0.292088)
(13.2458 -0.118109 0.272704)
(13.2132 -0.0680665 0.290992)
(4.24176 -0.000428939 -0.404539)
(-1.57817 -0.0936923 -0.276341)
(2.23769 2.11721 0.384558)
(2.54646 2.50986 0.340641)
(9.78865 1.02841 -1.77272)
(9.97842 1.13287 -2.05736)
(4.06528 2.17047 -0.552481)
(4.14397 1.94528 -0.318183)
(10.4435 0.681205 -1.63436)
(10.5902 0.673116 -1.80317)
(0.218361 0.415682 0.611151)
(5.79451 0.0802762 -0.815179)
(3.95154 0.82625 -0.149266)
(4.91056 1.91955 -0.316844)
(9.72129 1.18603 -1.59582)
(10.5445 1.08153 -1.47859)
(12.5943 0.11368 0.307598)
(12.6473 0.159417 0.29645)
(12.5326 0.114118 0.244667)
(12.4891 0.115484 0.206633)
(12.4548 0.123614 0.217407)
(12.4683 0.114178 0.266583)
(12.5892 0.12189 0.259518)
(12.6543 0.132823 0.296724)
(12.5793 0.162658 0.305746)
(12.537 0.101769 0.310258)
(12.3973 0.131404 0.208181)
(12.3769 0.0979811 0.157685)
(12.4321 0.119101 0.226763)
(12.4624 0.117192 0.267799)
(12.3901 0.0987805 0.14999)
(12.4581 0.105032 0.16294)
(12.5532 0.106818 0.196375)
(12.5001 0.11695 0.210145)
(9.72401 1.77103 -0.0829281)
(9.42158 1.69295 0.665492)
(9.3331 2.06647 0.833739)
(9.7007 1.93593 0.175377)
(9.59562 2.08822 0.0512328)
(9.2123 2.54627 0.300359)
(8.6971 2.73457 0.269366)
(9.34808 1.74029 -0.0767957)
(9.53638 2.09334 0.596134)
(9.00389 1.94659 0.638319)
(8.85545 2.21699 0.677842)
(8.79252 2.69444 0.389938)
(9.29592 2.43292 0.548903)
(9.72101 1.80077 0.372166)
(9.6652 1.6295 0.364137)
(9.61329 1.66818 -0.0256577)
(10.5691 0.667443 -0.239105)
(10.6445 0.668497 -0.190062)
(10.6029 0.611447 -0.22931)
(10.6054 0.781414 -0.262327)
(10.7177 0.847263 -0.165981)
(10.5462 0.558754 -0.249426)
(10.48 0.642856 -0.31937)
(10.5182 0.733525 -0.345754)
(10.5791 0.750166 -0.335852)
(10.5164 0.735759 -0.382221)
(10.5715 0.745762 -0.32211)
(10.6453 0.75132 -0.359154)
(10.5922 0.740826 -0.403873)
(10.698 0.769755 -0.305877)
(10.6374 0.739387 -0.299347)
(10.487 0.605824 -0.286979)
(10.4533 0.635731 -0.34537)
(11.7196 -0.0534423 0.799358)
(11.7259 -0.0269418 0.770964)
(11.8422 0.122099 0.664966)
(11.8441 0.155595 0.680781)
(11.8369 0.162999 0.684939)
(11.8363 0.118218 0.661203)
(11.7391 -0.0182404 0.8672)
(11.715 -0.00861073 0.895532)
(11.8391 0.289006 0.813586)
(11.8317 0.381176 0.967095)
(11.7067 -0.0147806 0.72372)
(11.8478 0.121385 0.669088)
(11.8526 0.288175 0.819558)
(11.8533 0.324899 0.902736)
(11.7147 0.0045421 0.691787)
(11.8915 0.286854 0.885321)
(11.7839 0.0019442 0.82993)
(9.89299 -1.32772 0.222481)
(10.2495 -1.29545 0.232306)
(10.3874 -1.30243 0.342088)
(9.7427 -1.41416 0.285574)
(10.2445 -1.22498 0.143189)
(9.63678 -1.42772 0.198583)
(9.63464 -1.21893 -0.091898)
(9.3805 -1.33457 -0.10362)
(10.2872 -1.20332 0.188949)
(10.4283 -1.29083 0.25768)
(10.4357 -1.2981 0.352377)
(9.79255 -1.50297 0.238921)
(9.1352 -1.39728 -0.18113)
(9.5117 -1.31362 -0.148196)
(9.44134 -1.5217 -0.236147)
(9.84364 -1.17936 -0.0312999)
(9.16492 -1.57301 -0.184464)
(9.22638 -1.60039 -0.211989)
(12.1549 -0.490356 0.264724)
(12.3573 -0.424001 0.300351)
(12.3577 -0.384757 0.286803)
(12.344 -0.351344 0.182307)
(12.1072 -0.408097 0.168597)
(12.3981 -0.30706 0.255979)
(12.1392 -0.482604 0.271425)
(12.2984 -0.408248 0.285508)
(12.2867 -0.387667 0.271441)
(12.3819 -0.292617 0.257066)
(12.2763 -0.357043 0.178596)
(12.2233 -0.396553 0.244605)
(12.3103 -0.324609 0.214751)
(12.08 -0.486955 0.208223)
(11.7467 -0.794268 0.394574)
(11.8142 -0.741529 0.411393)
(11.7106 -0.722801 0.669794)
(12.0874 -0.589625 0.686296)
(11.739 -0.732014 0.694883)
(11.7016 -0.770004 0.678181)
(11.5214 -0.852408 0.48008)
(11.8358 -0.755441 0.393566)
(11.9263 -0.685713 0.433775)
(11.6422 -0.86786 0.614833)
(11.6678 -0.849089 0.60615)
(11.5708 -0.85135 0.508749)
(11.8392 -0.767021 0.423995)
(12.1488 -0.586697 0.501536)
(12.1511 -0.598957 0.490956)
(11.6517 -0.825304 0.476936)
(12.118 -0.636971 0.55086)
(11.7963 -0.782154 0.567011)
(10.614 3.37426 -0.737167)
(10.9902 3.29902 -0.641009)
(10.9833 3.05048 -0.595543)
(10.4179 3.29922 -0.512787)
(10.7314 3.50119 -0.516422)
(11.3407 3.00456 -0.302324)
(11.1893 2.64022 -0.274905)
(11.0374 3.42362 0.0278261)
(11.2509 3.24492 0.0649645)
(10.5865 3.3593 -0.1284)
(11.0959 2.56769 -0.219792)
(11.0912 3.5937 -0.14771)
(11.6326 -0.287959 0.855967)
(12.2437 -0.219894 0.907653)
(11.4213 -0.480655 0.821716)
(12.2195 -0.211451 0.898801)
(11.5048 -0.244113 0.880958)
(11.8952 -0.400457 0.74599)
(11.4884 -0.392006 0.828689)
(11.5482 -0.437297 0.792866)
(11.7758 -0.442524 0.78567)
(12.5076 -0.17847 0.778011)
(12.6406 -0.175471 0.705323)
(12.4945 -0.213632 0.773113)
(12.2867 -0.329036 0.678109)
(12.4071 -0.31293 0.637189)
(12.625 -0.188222 0.706846)
(12.4006 -0.303151 0.640447)
(12.394 -0.136225 0.79318)
(12.2297 -0.0764795 0.768919)
(12.3281 -0.111243 0.779591)
(12.2224 -0.0700003 0.744394)
(11.8784 -0.0826939 0.867387)
(11.7106 -0.219496 0.920623)
(11.2794 -0.245179 0.90685)
(11.8623 -0.0403028 0.961041)
(11.8935 -0.0725415 0.847356)
(12.1958 -0.0538729 0.758421)
(12.2782 -0.097655 0.773814)
(12.2072 -0.208591 0.821241)
(11.3403 -0.284993 0.877157)
(12.1321 -0.182836 0.795555)
(11.9689 -0.276554 0.825151)
(11.9753 -0.263719 0.832316)
(12.4505 0.467246 0.583122)
(12.5161 0.48226 0.604112)
(12.5671 0.41372 0.554418)
(12.3853 0.523846 0.433382)
(12.1877 0.700996 0.555976)
(12.4044 0.288246 0.522336)
(12.3325 0.298827 0.513368)
(12.5912 0.572149 0.545062)
(12.4786 0.646445 0.614428)
(12.4241 0.629928 0.453032)
(12.273 0.714654 0.552769)
(12.3949 0.58789 0.619505)
(12.3336 0.547463 0.592207)
(12.2153 0.511199 0.618009)
(12.3024 0.429815 0.515581)
(12.4786 0.302283 0.525331)
(12.4425 0.359529 0.491799)
(12.3641 0.355241 0.512745)
(12.4845 0.522502 0.493216)
(11.107 -0.292809 -0.579713)
(11.0648 -0.297261 -0.547213)
(11.4598 -0.295572 -0.473497)
(10.7022 -0.332308 -0.590859)
(11.1572 -0.28426 -0.580641)
(10.7899 -0.33862 -0.54117)
(11.0545 -0.37199 -0.596366)
(11.5697 -0.290999 -0.547359)
(11.0407 -0.348227 -0.466636)
(11.7982 -0.319374 -0.417777)
(10.7974 -0.371254 -0.548707)
(11.1765 -0.412266 -0.515658)
(11.2468 -0.403296 -0.409909)
(11.2239 -0.426869 -0.444363)
(9.08198 -0.239155 -0.393116)
(9.02716 -0.224262 -0.391274)
(9.71961 -0.305483 -0.239809)
(9.31495 -0.273394 -0.330373)
(9.39564 -0.271201 -0.311431)
(9.48352 -0.247619 -0.319301)
(10.1772 -0.257749 -0.147746)
(9.92068 -0.303691 -0.346602)
(9.72933 -0.292338 -0.367563)
(10.6086 -0.288253 -0.170911)
(10.4566 -0.264509 -0.178347)
(9.28276 -0.289732 -0.392735)
(10.34 -0.27737 -0.172503)
(10.1368 -0.275928 -0.27211)
(10.118 -0.276027 -0.261031)
(10.5942 -0.281676 -0.175627)
(10.5056 -0.265219 -0.185498)
(10.1979 -0.226096 -0.226767)
(11.788 1.25162 -0.136845)
(11.4106 1.35378 -0.556346)
(11.104 1.48436 -0.814333)
(12.4252 0.581796 -0.225251)
(12.3357 0.803669 -0.19575)
(11.8048 1.07206 -0.467439)
(11.9998 0.996527 -0.15211)
(12.5408 0.536196 -0.218701)
(12.3711 0.808907 -0.168223)
(11.435 1.05351 -0.77538)
(11.9504 0.785972 -0.579932)
(4.55902 -1.02986 -1.14854)
(4.66462 -1.08813 -1.12332)
(4.6146 -0.957108 -1.13803)
(4.47927 -0.879711 -1.21425)
(3.70549 -0.397363 -1.31641)
(3.24598 -0.111002 -1.06074)
(3.22094 -0.0319527 -1.30532)
(2.99174 0.0334079 -1.12231)
(5.00575 -1.08602 -1.24079)
(5.29563 -1.12585 -1.23733)
(4.63042 -0.978625 -1.11813)
(4.0807 -0.485542 -1.17942)
(4.01909 -0.351036 -1.2427)
(3.76877 -0.432149 -1.09428)
(3.6657 -0.208557 -1.20157)
(3.6834 -0.308475 -1.1402)
(3.19418 -0.0261978 -1.2601)
(5.24085 -1.08186 -1.19393)
(5.05054 -0.895881 -1.27216)
(5.30886 -1.077 -1.19435)
(4.76262 -0.850916 -1.35498)
(13.4004 -0.167299 0.374633)
(13.406 -0.172294 0.343371)
(13.4026 -0.102565 0.404636)
(13.4263 -0.133658 0.362859)
(13.4031 -0.114275 0.409582)
(13.386 -0.172703 0.359339)
(13.3901 -0.171468 0.376401)
(13.3805 -0.0920994 0.370669)
(13.3529 -0.0797603 0.403185)
(13.2726 -0.0919215 0.421114)
(13.2763 -0.10852 0.387249)
(13.2258 -0.0896151 0.420179)
(13.3792 -0.10091 0.36069)
(13.274 -0.0843259 0.420926)
(13.1892 -0.0748377 0.399596)
(13.2877 -0.0903962 0.369595)
(13.1966 -0.0632512 0.40431)
(12.1516 0.0807937 0.786266)
(12.0137 0.0829687 0.80544)
(11.6938 0.0528845 0.885564)
(11.0629 0.0811943 0.873207)
(12.1058 0.0817988 0.818102)
(11.9852 0.0789328 0.861325)
(11.193 0.324758 0.541222)
(11.1598 0.21388 0.684294)
(11.8009 0.0490795 0.883572)
(11.0576 0.100595 0.8414)
(11.2921 0.19208 0.849866)
(8.69317 -0.161528 0.27461)
(8.74872 -0.0565195 0.169503)
(8.57751 -0.0269495 0.217616)
(7.01423 -0.112259 0.136851)
(7.89824 -0.146779 0.238382)
(6.03231 -0.0307887 0.1499)
(5.42854 -0.0248008 0.0830192)
(6.35829 -0.153559 0.252529)
(7.66518 0.0369146 0.292733)
(8.03475 -0.0328382 0.216055)
(5.79514 -0.00224376 0.107803)
(6.43759 0.016211 0.157563)
(6.12789 0.0214079 0.218855)
(12.3481 -0.31493 -0.237614)
(12.3136 -0.291786 -0.228507)
(12.4291 -0.313322 -0.139642)
(12.4497 -0.317718 -0.145142)
(12.2583 -0.363112 -0.210613)
(12.2738 -0.349427 -0.198784)
(12.2269 -0.336394 -0.275374)
(12.2099 -0.330725 -0.276554)
(12.3966 -0.287265 -0.157583)
(12.4645 -0.307779 -0.171558)
(12.2682 -0.286699 -0.236575)
(12.2839 -0.276853 -0.227174)
(12.5003 -0.311701 -0.137924)
(12.2335 -0.342658 -0.237137)
(12.4573 -0.29614 -0.121131)
(12.4281 -0.289432 -0.134842)
(12.2766 -0.286266 -0.214645)
(12.3125 -0.282612 -0.194293)
(12.4195 -0.288095 -0.131087)
(12.4216 -0.293553 -0.129133)
(12.3776 -0.29625 -0.162543)
(12.3035 -0.309962 -0.198623)
(11.9201 -0.50496 -0.47419)
(12.4315 -0.431706 -0.400581)
(11.6812 -0.399558 -0.566753)
(12.4744 -0.332262 -0.44413)
(12.5031 -0.434678 -0.392514)
(11.4431 -0.502523 -0.428148)
(11.6144 -0.3502 -0.580469)
(12.4855 -0.320382 -0.43838)
(12.0422 -0.343426 -0.532197)
(11.4125 -0.49455 -0.397691)
(11.9738 -0.432665 -0.337989)
(12.0246 -0.459971 -0.38723)
(11.2485 -0.418219 -0.614188)
(12.4401 -0.330301 -0.445382)
(12.0244 -0.330231 -0.531613)
(11.1097 -0.435436 -0.650703)
(11.6241 -0.364942 -0.639371)
(12.2025 -0.396623 -0.426323)
(12.4829 -0.409268 -0.398596)
(12.4521 -0.396386 -0.420979)
(12.7572 0.300554 0.27967)
(12.6096 0.328413 0.312111)
(12.5479 0.324038 0.406113)
(12.5922 0.301019 0.460864)
(12.7184 0.290505 0.260389)
(12.6213 0.314044 0.300201)
(12.5483 0.292228 0.455112)
(12.4869 0.314199 0.416057)
(12.7923 0.263816 0.360263)
(12.7546 0.238194 0.399883)
(12.7935 0.246356 0.369187)
(12.7132 0.273975 0.281136)
(12.6815 0.26958 0.276739)
(12.5996 0.310362 0.303738)
(12.8121 0.243863 0.381149)
(12.777 0.237095 0.424744)
(12.7127 0.229864 0.356334)
(12.5715 0.297226 0.298315)
(12.4644 0.293043 0.414111)
(12.5171 0.288421 0.46902)
(12.4988 0.278835 0.388975)
(12.4674 0.284453 0.443308)
(11.334 0.0159176 0.70023)
(11.3623 0.100439 0.724058)
(12.4238 0.0636784 0.681759)
(12.3594 0.0778754 0.672897)
(12.241 0.0560894 0.731742)
(12.11 0.109228 0.749763)
(12.2793 0.0587965 0.692706)
(12.2215 0.0486861 0.730615)
(12.0271 0.0289854 0.703048)
(11.4558 0.00613644 0.675248)
(11.3524 -0.0598928 0.671154)
(11.4699 -0.0270207 0.677957)
(12.18 0.127691 0.680524)
(12.3033 0.107462 0.640087)
(12.3754 0.0784596 0.65364)
(11.6035 0.00821207 0.668635)
(11.8635 0.0715813 0.625167)
(12.5538 0.362509 0.77122)
(12.5552 0.439515 0.741683)
(12.8202 0.217249 0.718345)
(12.7951 0.286908 0.684424)
(12.851 0.244535 0.700797)
(12.9559 0.224578 0.685907)
(13.0082 0.205462 0.67033)
(12.9065 0.360117 0.622455)
(12.8751 0.350698 0.64318)
(12.8124 0.427752 0.615196)
(12.8801 0.411139 0.598269)
(12.9947 0.25227 0.653128)
(12.8461 0.452656 0.592054)
(12.7719 0.454192 0.593311)
(10.9341 0.837097 -0.383534)
(10.8901 0.763346 -0.234489)
(10.8343 0.712394 -0.233075)
(10.8649 0.778487 -0.417273)
(10.798 0.769723 -0.422408)
(10.9346 0.622426 -0.281476)
(10.8757 0.559869 -0.253724)
(10.9674 0.688008 -0.294611)
(10.9179 0.624976 -0.300807)
(10.8464 0.572877 -0.271588)
(13.1271 -0.202821 0.501964)
(13.1171 -0.22155 0.495464)
(13.0466 -0.158717 0.542254)
(13.0472 -0.159664 0.51139)
(13.0953 -0.263526 0.514426)
(13.0812 -0.277572 0.525446)
(13.0836 -0.177483 0.518938)
(13.0663 -0.140894 0.534091)
(13.0757 -0.258586 0.524097)
(13.0447 -0.140452 0.554573)
(13.0553 -0.17459 0.576985)
(13.0556 -0.153903 0.584939)
(13.0535 -0.123996 0.564326)
(13.0424 -0.228539 0.564031)
(13.0714 -0.124518 0.567811)
(13.065 -0.150764 0.583373)
(13.041 -0.229816 0.562803)
(8.40847 0.0494587 0.154208)
(8.3253 0.0306565 0.192885)
(8.16756 0.0934047 0.227121)
(7.56904 -0.134288 0.0212221)
(7.5475 -0.0836772 -0.0443899)
(8.05919 0.105984 0.133068)
(8.3155 -0.370688 -0.364521)
(8.34157 -0.312501 -0.331424)
(8.15321 -0.275239 -0.276449)
(7.97273 -0.274638 -0.246997)
(8.24562 0.11666 0.254579)
(8.31764 0.0921617 0.188786)
(8.41162 -0.093545 0.0875978)
(8.4197 -0.00882201 0.0981112)
(7.93058 -0.236494 -0.234875)
(7.92735 -0.157161 -0.198546)
(7.60093 -0.0663521 -0.0787384)
(8.2003 0.0920369 0.123938)
(8.37306 -0.117412 0.0538517)
(8.21373 -0.0205986 0.0185142)
(11.8363 -0.0128182 0.544029)
(11.6909 -0.0759349 0.534307)
(11.685 -0.0148912 0.515543)
(11.7987 0.0113695 0.536849)
(11.6738 -0.119392 0.553788)
(11.3912 -0.0934212 0.54177)
(11.6051 -0.185819 0.531035)
(11.85 -0.0290802 0.489704)
(11.8427 -0.00696308 0.521036)
(11.7878 -0.0690772 0.517395)
(11.4179 -0.208048 0.472479)
(11.3616 -0.122277 0.541024)
(11.8134 0.0173534 0.522963)
(11.5708 -0.0893164 0.516289)
(11.5775 -0.126366 0.497479)
(11.3238 -0.176707 0.497706)
(3.20416 -0.252186 0.701601)
(3.22947 -0.458528 0.819052)
(2.35321 -0.445122 1.09819)
(2.29338 -0.200269 1.10228)
(6.07595 -0.72488 0.577965)
(4.64339 -0.605839 0.609812)
(7.784 -0.250961 0.826037)
(5.86113 0.109942 0.948805)
(3.55134 0.288424 1.35366)
(4.8764 -0.169051 1.1155)
(7.72223 -0.273977 0.702248)
(5.97492 -0.223897 0.898987)
(5.02506 0.247573 0.898199)
(12.4104 -0.131553 0.922906)
(12.3697 -0.0486828 0.98962)
(12.4848 -0.161503 0.902107)
(12.6159 -0.17254 0.825775)
(12.7729 -0.167489 0.773246)
(12.6696 -0.149533 0.842911)
(12.3635 -0.0416946 1.00905)
(12.5251 0.060715 0.869609)
(12.6545 -0.0735462 0.821197)
(12.6095 -0.152151 0.807533)
(12.8661 -0.0987141 0.745438)
(12.5577 0.111552 0.840303)
(11.7942 0.40535 -0.0962264)
(11.7458 0.302762 -0.129976)
(11.7972 0.267297 -0.142677)
(11.8896 0.40448 -0.0746562)
(11.828 0.347139 -0.0795523)
(11.8671 0.321018 -0.0988343)
(12.0241 0.386533 -0.0951982)
(12.1187 0.397494 -0.113135)
(12.0198 0.294737 -0.116407)
(11.9735 0.281385 -0.115262)
(12.0331 0.622507 -0.196674)
(12.1206 0.617461 -0.196342)
(11.9508 0.569245 -0.225992)
(12.0147 0.562768 -0.20847)
(11.8561 0.556787 -0.233116)
(11.904 0.476276 -0.153902)
(11.9266 0.377898 -0.0875875)
(11.9655 0.569181 -0.191079)
(11.993 0.452429 -0.13067)
(11.7943 -0.473459 0.207446)
(11.7424 -0.434964 0.262137)
(12.0022 -0.355931 0.143069)
(11.9814 -0.29965 0.183873)
(12.018 -0.292183 0.207326)
(12.4179 -0.376422 0.351754)
(12.2337 -0.398817 0.331444)
(11.8818 -0.406885 0.227969)
(12.1774 -0.414961 0.187521)
(12.8633 -0.31045 0.503014)
(12.8642 -0.323975 0.497162)
(12.0359 -0.40826 0.307712)
(12.8411 -0.358028 0.349587)
(12.6265 -0.370249 0.308016)
(12.8068 -0.329267 0.450604)
(12.9687 -0.302969 0.486987)
(12.9952 -0.284164 0.459272)
(12.6696 -0.378489 0.379962)
(12.9366 -0.295467 0.41906)
(1.34834 0.512595 -1.27305)
(1.56895 0.410812 -1.5368)
(2.31857 0.201582 -1.40605)
(1.98752 0.25762 -1.27211)
(1.83045 0.231069 -1.29804)
(2.00014 0.174942 -1.39689)
(2.4485 -0.0979233 -1.23737)
(2.69532 -0.177396 -1.28837)
(2.87061 -0.197881 -1.33156)
(2.89475 -0.228894 -1.23678)
(3.42714 -0.469255 -1.21869)
(3.48586 -0.507711 -1.26199)
(2.95295 -0.0168463 -1.31565)
(3.28808 -0.321198 -1.37969)
(3.12837 -0.130729 -1.25985)
(2.53545 0.00834615 -1.35897)
(10.9051 0.519508 -0.315159)
(10.8227 0.486626 -0.248662)
(10.8724 0.498721 -0.329574)
(10.9681 0.557563 -0.393373)
(10.8937 0.548396 -0.66598)
(10.8191 0.538502 -0.658886)
(10.8337 0.492187 -0.304405)
(10.9293 0.567718 -0.533694)
(10.8647 0.573904 -0.653159)
(10.8174 0.538618 -0.662117)
(10.7874 0.412003 -0.375849)
(10.8787 0.474782 -0.486726)
(10.8724 0.56237 -0.48526)