/*--------------------------------*- C++ -*----------------------------------*\
  =========                 |
  \\      /  F ield         | OpenFOAM: The Open Source CFD Toolbox
   \\    /   O peration     | Website:  https://openfoam.org
    \\  /    A nd           | Version:  10
     \\/     M anipulation  |
\*---------------------------------------------------------------------------*/
FoamFile
{
    format      ascii;
    class       volScalarField;
    location    "4";
    object      C;
}
// * * * * * * * * * * * * * * * * * * * * * * * * * * * * * * * * * * * * * //

dimensions      [1 3 0 0 0 0 0];

internalField   nonuniform List<scalar> 
75457
(
0.138486
0.14082
0.19083
0.243934
0.142835
0.153243
0.174755
0.158652
0.304209
0.298228
0.296817
0.160165
0.174703
0.266325
4.09697e-07
7.02711e-07
2.46957e-06
1.55232e-06
1.13473e-06
1.3097e-06
1.12343e-06
1.81066e-06
1.58613e-06
1.95105e-06
3.14926e-06
1.01437e-06
5.98523e-07
2.308e-11
1.18113e-11
1.15812e-11
6.49125e-12
3.84392e-12
2.81366e-12
2.48976e-11
1.30485e-11
2.4082e-11
3.32172e-11
5.84128e-12
4.21955e-12
7.61259e-12
1.32358e-11
5.08655e-12
1.37637e-11
0.000208039
0.000208814
0.000293832
0.000246458
0.000195352
4.36766e-07
7.65708e-07
1.06094e-06
6.27421e-07
3.21199e-07
5.91259e-07
1.09825e-06
1.55276e-06
5.44804e-07
7.18349e-07
5.69313e-07
3.84142e-07
4.57481e-07
9.73149e-07
0.499999
0.499999
0.499999
0.5
0.5
0.5
0.5
0.5
0.5
0.5
0.5
0.5
0.5
0.5
0.5
4.1777e-11
3.0999e-12
1.77441e-15
3.17568e-10
3.5026e-11
4.61506e-16
5.54498e-15
4.60105e-13
1.4709e-13
5.65051e-15
1.74008e-14
8.15568e-11
3.01796e-10
7.22165e-12
7.66848e-16
7.96921e-11
3.13967e-12
0.00195866
0.00276874
0.00273837
0.00347059
0.0017914
0.00209992
0.00302318
0.00247199
0.5
0.5
0.5
0.5
0.5
0.5
0.5
0.5
0.5
0.5
0.5
0.499999
0.499999
0.5
0.5
0.499999
0.5
0.5
0.499999
0.499999
0.5
0.5
0.5
0.5
0.5
0.5
0.5
0.5
0.5
0.499353
0.499173
0.499132
0.499456
0.499188
0.499723
0.499639
0.499614
0.499376
0.48679
0.484275
0.484931
0.481252
0.481087
0.477669
0.478477
0.474903
0.270197
0.276442
0.288268
0.293774
0.293234
0.315986
0.305213
0.323822
0.335789
0.31646
0.310605
0.309788
0.304292
0.333925
0.327001
0.499964
0.499981
0.499988
0.499978
0.499986
0.499947
0.499958
0.499972
0.499961
0.499978
0.499975
0.499943
0.499954
0.139789
0.141879
0.161488
0.134775
0.152185
0.133151
0.13412
0.121369
0.114408
0.124732
0.117915
0.112945
0.105621
0.112959
0.0256414
0.0236822
0.0274814
0.0160983
0.0143859
0.0168569
0.461045
0.462678
0.456327
0.456287
0.450886
0.44808
0.463271
0.453986
0.456988
0.435701
0.433504
0.00405884
0.00363579
0.00309529
0.00295849
0.00378046
0.00275426
0.00307753
0.00214851
0.0016521
0.00238954
0.00299655
0.00242012
0.00210947
0.00196643
0.41909
0.405724
0.401615
0.379992
0.392409
0.380946
0.401902
0.414757
0.398348
0.408543
0.396537
0.372607
0.416084
0.388426
0.000703199
0.000651837
0.000315513
0.000261822
0.000339081
0.00043666
0.000612034
0.000520326
0.000464218
0.000219315
0.000238355
0.000255659
0.00042957
0.00032573
0.000315407
0.000345194
0.00041372
0.00112376
0.00118734
0.00195884
0.00151152
0.00268303
0.0024139
0.00151726
0.00301393
0.00406162
0.00369527
0.00158131
0.00177962
0.000229556
0.000219279
0.000191993
0.000187243
0.000303996
0.000514602
0.000354912
0.000423313
0.000560895
0.000392157
0.00031478
0.000299216
0.000417947
0.0831056
0.0917871
0.0779371
0.118779
0.108418
0.109691
0.103691
0.124635
0.115904
0.0935398
0.104859
0.0929759
0.12323
0.100272
0.116896
3.24741e-14
5.63071e-14
1.67341e-14
2.18734e-14
2.02107e-14
1.11752e-13
6.17339e-14
3.38799e-14
6.67068e-14
7.24949e-18
8.87277e-18
3.12917e-17
1.75907e-17
2.39044e-17
1.11857e-17
1.1867e-17
2.72067e-17
6.08402e-18
7.07727e-18
1.23675e-17
4.97365e-18
8.38863e-18
1.25436e-09
2.56541e-10
1.20314e-10
9.52014e-10
2.03702e-09
1.44016e-09
1.58772e-09
3.84874e-11
7.63134e-11
2.93042e-10
1.11766e-10
0.000252423
0.0002901
0.000384171
0.000338335
0.00026588
0.000173854
0.000206897
0.000396205
0.00029878
0.000348221
0.000494873
0.000372272
0.000259759
0.000217882
0.00048439
0.000226674
0.000289748
8.03114e-09
2.17906e-09
1.42073e-09
3.50321e-10
3.23026e-10
2.78574e-09
6.38994e-10
3.85121e-09
2.26473e-08
7.2141e-11
5.92955e-10
7.14263e-09
9.05096e-09
1.6515e-08
1.32607e-08
4.26408e-09
7.89334e-09
4.44592e-09
7.75773e-09
9.72358e-09
4.33114e-09
6.45905e-09
1.72439e-13
2.94588e-13
2.47662e-13
4.60253e-13
1.55803e-13
1.00976e-13
2.12274e-13
1.41762e-13
2.78142e-13
4.20745e-13
1.10811e-13
8.71455e-14
2.17616e-13
3.85103e-13
2.25465e-13
1.31977e-08
6.89155e-09
2.29517e-08
2.30639e-08
8.62054e-09
2.22377e-05
3.26994e-05
2.3815e-05
2.83599e-05
4.58395e-05
3.56667e-05
4.81595e-05
0.483258
0.480158
0.488763
0.486681
0.48065
0.477265
0.485606
0.481889
0.478262
0.475199
0.487751
0.484553
0.480873
0.479737
0.489476
0.483818
0.482041
0.487744
0.490627
0.49145
0.490727
0.489588
0.491951
0.490277
0.492631
0.491552
0.488983
0.489609
0.491386
0.492297
0.489901
0.475089
0.477932
0.484584
0.486155
0.482991
0.482224
0.485046
0.48662
0.474818
0.476079
0.479954
0.478327
0.483851
0.485567
0.482735
0.48726
0.484321
0.482452
0.484418
0.486129
0.481171
0.486535
0.0114584
0.0106711
0.0104954
0.0128112
0.0125484
0.0223977
0.0181515
0.0206153
0.0103388
0.0139183
0.0110413
0.0159167
0.0181555
0.0128631
0.0147454
0.0153281
0.239711
0.154247
0.16802
0.183906
0.328585
0.331928
0.228136
0.22078
0.342732
0.349589
0.138258
0.267231
0.226268
0.250028
0.320484
0.333582
0.43329
0.421273
0.433384
0.438554
0.441734
0.446817
0.426313
0.416831
0.429394
0.442167
0.455511
0.449013
0.449797
0.439578
0.436533
0.429421
0.425096
0.434945
0.494158
0.493314
0.491859
0.49273
0.491449
0.487974
0.486765
0.493276
0.491621
0.490497
0.489693
0.488187
0.489462
0.49342
0.494193
0.494853
0.499838
0.499848
0.499908
0.499805
0.499811
0.499937
0.499952
0.499927
0.499892
0.499951
0.499936
0.499891
0.499919
0.499885
0.49992
0.499969
0.499972
0.495852
0.49668
0.496996
0.49766
0.49707
0.496416
0.495027
0.49539
0.496471
0.495358
0.494688
0.495713
0.49565
0.495117
0.49392
0.494219
0.493995
1.02457e-08
2.11103e-08
3.72342e-08
1.83178e-08
2.56338e-08
1.08658e-08
1.36611e-08
6.1735e-09
4.29924e-08
7.12543e-08
5.43402e-08
2.66243e-08
7.40601e-09
3.15034e-08
2.49373e-08
4.10743e-08
7.41255e-09
1.27137e-08
1.02805e-07
1.9166e-07
1.20214e-07
8.29467e-08
7.01143e-08
8.6533e-08
6.70783e-08
7.56938e-08
4.22302e-08
4.93816e-08
5.27666e-08
2.49057e-08
3.08708e-08
4.28004e-08
6.79518e-07
5.78112e-07
6.58468e-07
1.46459e-06
1.18934e-06
9.1422e-07
5.95155e-07
1.10008e-06
9.11509e-07
1.03974e-06
1.39206e-06
9.06594e-07
1.26148e-06
1.31694e-06
1.75625e-06
1.42243e-06
2.13412e-06
1.8447e-06
0.471275
0.46898
0.472055
0.474263
0.470513
0.468499
0.474621
0.476441
0.475051
0.479747
0.479765
0.46994
0.000723081
0.000982339
0.00129899
0.001268
0.000909227
0.000992385
0.00141796
0.00177031
0.00116951
0.00140001
0.00164893
0.00248832
0.00265977
0.00185489
0.00196724
0.00232288
1.31e-07
9.96352e-08
8.26794e-08
7.19862e-08
6.8702e-08
7.97891e-08
2.50726e-08
2.95914e-08
5.11566e-08
5.37657e-08
6.16868e-08
1.22318e-07
4.42871e-08
4.02167e-08
5.09376e-08
7.04145e-08
0.445419
0.436473
0.426965
0.442874
0.448172
0.442547
0.450451
0.422241
0.431849
0.437986
0.440833
0.440283
0.448615
0.45813
0.453936
0.434065
0.442262
0.450292
0.432701
2.49746e-08
1.45573e-08
6.17928e-09
3.8317e-08
3.6055e-08
1.36192e-08
7.89766e-08
7.15058e-08
8.90617e-09
2.3667e-08
2.28736e-08
5.34025e-08
1.56886e-08
2.93986e-08
2.77757e-11
1.64056e-11
4.62031e-11
5.59184e-11
1.91432e-11
1.26872e-10
1.14618e-10
5.53891e-11
7.96326e-11
2.56525e-10
1.0831e-10
1.47308e-10
4.05977e-10
1.10811e-10
2.11394e-10
1.36455e-10
7.6507e-11
2.76587e-10
0.29102
0.228989
0.224808
0.330321
0.339309
0.234337
0.28694
0.317004
0.32559
0.222669
0.243467
5.80944e-12
1.0168e-11
1.69171e-11
6.77194e-12
2.05464e-12
5.92909e-12
1.406e-12
3.11235e-12
1.33903e-11
2.98286e-11
2.10134e-11
2.46066e-11
1.35398e-11
1.21429e-11
7.66554e-12
1.30672e-11
2.5955e-12
6.21901e-11
3.15825e-11
6.33191e-11
1.1775e-11
0.0318055
0.0342298
0.044815
0.0394512
0.039881
0.0249789
0.0276494
0.0380805
0.0430127
0.0284382
0.0214956
0.0242082
0.0324839
0.0326169
0.0281176
0.0254465
0.034078
5.19428e-07
3.93189e-07
4.68971e-07
2.27315e-07
7.30282e-07
5.49615e-07
2.94584e-07
2.20854e-07
6.05577e-07
2.86641e-07
4.23516e-07
4.90245e-09
2.88561e-09
2.76214e-09
7.02465e-10
2.26193e-09
2.06777e-10
1.30518e-10
1.05008e-09
9.44505e-10
1.10312e-09
1.53439e-10
2.14178e-10
3.76474e-10
2.84148e-08
1.64504e-08
1.06688e-08
1.90503e-08
1.44742e-08
8.16561e-09
1.76125e-08
1.0175e-08
1.48601e-08
2.64488e-08
5.76458e-09
1.02531e-08
2.34159e-08
6.15889e-09
1.20603e-08
6.5088e-09
4.59196e-09
6.60837e-09
4.83806e-09
6.45124e-09
8.98609e-09
3.57495e-09
2.04656e-05
2.38769e-05
1.51066e-05
1.88847e-05
1.50737e-05
7.29356e-06
1.19998e-05
1.37439e-05
8.77292e-06
3.75426e-06
3.49948e-06
6.71071e-06
6.37971e-06
9.978e-06
6.32207e-06
3.95996e-06
3.439e-06
3.11561e-06
1.01468e-05
6.66058e-06
1.98989e-06
2.08532e-06
2.83828e-06
2.78404e-06
1.41727e-06
1.49681e-06
1.85574e-06
1.8422e-06
2.20088e-06
1.03375e-06
1.35677e-06
1.01167e-06
6.80898e-07
1.07373e-06
1.87343e-06
1.25304e-06
6.49279e-07
7.33914e-07
1.30227e-06
1.28329e-06
6.44151e-07
1.03464e-06
1.05852e-07
1.2674e-07
3.92268e-07
5.01561e-07
2.4853e-07
2.51917e-07
1.48484e-07
1.7731e-07
1.08252e-07
9.15745e-08
1.35986e-07
1.94634e-07
3.59646e-07
2.7698e-07
2.41593e-07
1.20788e-07
1.95502e-07
0.00102817
0.000882658
0.00109324
0.00121374
0.00121141
0.000837235
0.00106984
0.000909614
0.00110242
0.000902795
0.000773334
0.000845099
0.00068037
0.000740018
0.495204
0.49739
0.497941
0.496004
0.496831
0.497874
0.498366
0.497076
0.497577
0.498208
0.000809866
0.00063088
0.000364838
0.000493392
0.000566578
0.000690831
0.000636656
0.000833926
0.000421703
0.000426966
0.000406656
0.000523673
0.000544139
0.000398737
0.000681445
0.00065874
0.000519448
0.000112081
0.000159813
7.94921e-05
9.02877e-05
5.3663e-05
4.67427e-05
0.000425043
0.000295873
0.00019005
0.000190768
8.96728e-05
7.154e-05
0.000232227
0.000123507
0.000223131
9.18441e-05
3.38898e-05
4.62084e-05
0.000130796
6.45136e-05
0.497539
0.496266
0.495758
0.496835
0.496696
0.494474
0.4972
0.498057
0.497844
0.497537
0.496141
0.495107
0.497282
0.495955
0.496518
0.495478
0.0337375
0.0248404
0.0146558
0.014318
0.0753236
0.0403015
0.106051
0.0705125
0.0211521
0.0373892
0.093083
0.0548197
0.0469575
0.000172199
0.000195757
0.000208946
0.000299104
0.000246841
0.000179644
0.000231587
0.000245549
0.000219426
0.000383805
0.000298188
0.000295545
0.473945
0.475833
0.471957
0.46993
0.469918
0.468957
0.457348
0.451515
0.458845
0.464568
0.46334
0.458186
0.467226
0.46226
0.473282
0.466105
0.463722
0.467952
0.460785
0.00345693
0.0026373
0.00308346
0.00254769
0.00245468
0.00385172
0.00289136
0.00212545
0.00369461
0.00290318
0.00357237
0.00179349
0.00456216
0.00323494
0.00457119
0.00309363
0.00373225
0.0025671
0.00466419
2.23108e-14
4.07042e-14
1.11492e-13
4.67208e-14
4.12927e-14
7.92171e-14
2.5248e-14
2.52754e-14
5.67631e-14
8.06756e-14
3.23117e-13
1.74032e-13
3.45205e-13
1.5654e-13
5.30617e-13
1.22499e-13
0.496534
0.496916
0.495488
0.494954
0.494342
0.495441
0.497652
0.494484
0.495101
0.496097
0.496771
0.49547
0.495658
0.497563
0.498471
0.497327
0.091673
0.0706104
0.0806172
0.0632863
0.103414
0.0701819
0.0915595
0.0936898
0.115736
0.128466
0.102788
0.105209
0.0730882
0.073764
0.114728
0.0946022
0.11706
0.106051
0.117097
0.0795834
0.499989
0.499999
0.499998
0.499997
0.499987
0.499994
0.499998
0.499997
0.499997
0.499999
0.499999
0.499997
0.499999
0.499997
0.499997
0.477902
0.481609
0.463577
0.466433
0.472359
0.474447
0.452523
0.461831
0.429807
0.423543
0.436808
0.442753
0.43114
0.442754
0.203643
0.206012
0.239091
0.22333
0.189103
0.196774
0.220079
0.224456
0.242522
0.25781
0.238131
0.242956
0.22462
0.215482
0.25037
0.235548
5.59813e-06
4.08058e-06
5.9996e-06
9.02054e-06
3.10133e-06
4.23908e-06
5.21936e-06
7.62674e-06
1.0965e-05
3.58488e-06
2.7123e-06
4.32091e-06
5.44778e-06
9.7552e-06
2.34669e-06
6.24328e-06
3.96076e-06
7.1158e-06
4.74774e-06
0.0101338
0.00513631
0.00478494
0.0090026
0.0119979
0.00338476
0.00672792
0.00658174
0.0095522
0.00747841
0.00737481
0.00638321
0.00854974
0.00698434
0.00523069
0.00476484
0.0184116
0.0126309
0.00831973
0.00931491
0.0171879
0.0126445
0.00806197
0.00781187
0.0139632
0.5
0.5
0.499999
0.5
0.5
0.499999
0.5
0.5
0.5
0.5
0.5
0.5
0.5
0.5
0.5
0.5
0.5
0.5
0.5
0.5
0.218638
0.207317
0.207865
0.188732
0.200487
0.208216
0.196827
0.191362
0.199392
0.181091
0.169095
0.180281
6.24306e-07
8.72099e-07
2.76383e-07
2.66479e-07
1.72123e-07
9.53595e-07
8.93588e-07
6.42463e-07
4.18053e-07
4.65782e-07
2.12701e-07
2.9294e-07
3.20335e-07
4.156e-07
4.87685e-07
4.77645e-07
6.12176e-07
7.28914e-07
1.67568e-09
7.40226e-10
1.19163e-09
4.77169e-10
1.07513e-09
5.43941e-09
3.31153e-09
3.884e-09
2.09138e-09
7.37079e-10
1.19394e-09
2.11784e-09
9.19245e-09
5.14522e-09
3.12379e-09
2.02242e-09
5.30225e-09
2.93773e-09
1.1e-09
7.41856e-10
1.26424e-09
1.12302e-09
4.70372e-10
1.35246e-09
5.24263e-10
3.05317e-10
2.48923e-09
9.26646e-10
1.58548e-09
9.60195e-10
5.22775e-10
3.87625e-10
8.83607e-10
2.85861e-09
1.78401e-09
3.39497e-08
4.66666e-08
4.68881e-08
1.32308e-07
7.43804e-08
6.27584e-08
1.01303e-07
9.65834e-08
3.04082e-08
0.00867263
0.00760476
0.00549467
0.00779673
0.00433096
0.00491143
0.00410294
0.00457216
0.00612971
0.00679668
0.00373474
0.00559279
3.04014e-07
2.06619e-07
2.84455e-07
2.42998e-07
4.05086e-07
4.66202e-07
3.22919e-07
3.84812e-07
6.6572e-07
6.18315e-07
7.9854e-07
4.38973e-07
4.34842e-07
5.37935e-07
5.80347e-07
6.38291e-07
0.499904
0.499837
0.499935
0.499854
0.499865
0.499796
0.499839
0.499891
0.49994
0.499952
0.000495157
0.000373959
0.000762633
0.000707645
0.000674134
0.000515561
0.000807706
0.000797391
0.000228611
0.000607509
0.000419833
0.00039821
0.000549636
0.000514916
0.000378213
0.000288844
0.000308169
0.000674748
5.4447e-06
6.48938e-06
3.65588e-06
7.83932e-06
1.10636e-05
4.93024e-06
5.57155e-06
3.83127e-06
8.81729e-06
1.74658e-05
1.27307e-05
1.04383e-05
7.75245e-06
1.36108e-05
6.84638e-06
8.72283e-06
1.2178e-05
8.91348e-06
0.483996
0.480899
0.476637
0.480333
0.473568
0.469881
0.487636
0.48397
0.476905
0.484915
0.478278
0.475092
0.480234
0.473823
0.5
0.5
0.5
0.5
0.5
0.5
0.5
0.5
0.5
0.5
0.5
0.5
0.5
0.5
0.5
0.5
0.5
0.5
0.5
0.5
0.135795
0.119748
0.140533
0.168434
0.110356
0.104298
0.103042
0.0829072
0.1938
0.149865
0.1204
0.154736
0.160054
0.0928428
0.181586
0.17826
0.171327
0.204832
0.206485
0.350477
0.370158
0.351919
0.367172
0.251834
0.249004
0.295243
0.272355
0.344849
0.341018
0.283627
0.345267
0.369149
0.274784
0.254189
0.288383
0.323401
0.298639
0.337964
0.296154
2.59689e-10
5.59985e-10
1.73385e-10
9.81732e-10
3.9357e-10
2.67732e-10
3.48729e-10
2.78663e-10
6.71891e-10
4.10287e-10
1.38786e-10
3.01579e-10
2.46844e-10
5.97266e-10
4.44127e-10
4.91301e-10
2.19765e-09
1.34004e-09
9.38369e-10
1.04169e-05
8.95142e-06
1.00745e-05
6.56505e-06
7.88362e-06
7.93816e-06
2.80743e-05
2.59934e-05
2.0482e-05
5.45571e-05
4.14871e-05
8.84725e-06
1.5721e-05
2.81086e-05
1.22638e-05
1.07332e-05
0.5
0.5
0.5
0.5
0.5
0.5
0.5
0.5
0.5
0.5
0.5
0.5
0.5
0.5
0.5
0.5
0.5
0.5
0.5
0.5
0.391779
0.39143
0.407254
0.398103
0.392119
0.380876
0.384274
0.377913
0.377435
0.394186
0.385156
0.365012
0.371762
0.36664
0.35087
0.346904
0.371682
0.358248
0.357148
0.379537
0.5
0.5
0.5
0.5
0.5
0.5
0.5
0.5
0.5
0.5
0.5
0.5
0.5
0.5
0.5
0.5
0.5
1.61726e-07
1.39844e-07
2.56999e-07
1.77738e-07
2.3616e-07
1.78789e-07
1.30331e-07
3.00165e-07
1.25628e-07
2.2113e-07
1.54796e-07
1.14624e-07
0.5
0.5
0.5
0.5
0.5
0.5
0.5
0.5
0.5
0.5
0.5
0.5
0.5
0.5
0.5
0.5
0.5
0.5
0.5
0.5
0.5
0.499933
0.499895
0.499913
0.499944
0.499959
0.499862
0.499917
0.499977
0.499948
0.499969
0.499934
0.499931
0.499881
0.499876
0.499928
0.49996
0.499963
0.499912
0.499041
0.49876
0.499419
0.499144
0.498979
0.499374
0.499578
0.499638
0.499344
0.499538
0.499785
0.499656
0.499684
0.499506
0.499422
0.499717
0.499872
0.499907
0.499792
0.499743
0.499988
0.49998
0.499977
0.499865
0.499914
0.499959
0.499961
0.499985
0.499979
0.235049
0.255743
0.218322
0.208044
0.222381
0.207117
0.268901
0.245629
0.221768
0.233256
0.238974
0.266494
0.274243
0.253342
0.262708
0.247344
0.499999
0.499999
0.499999
0.499999
0.499998
0.499999
0.499999
0.499998
0.5
0.499999
0.499999
0.5
0.499999
0.5
0.5
0.5
0.499999
0.5
0.5
0.5
0.5
0.5
0.5
0.5
0.5
0.5
0.5
0.5
0.5
0.5
0.5
0.5
0.5
0.5
0.365017
0.383476
0.376868
0.376609
0.398159
0.331635
0.308377
0.377888
0.308874
0.31584
0.354831
0.334647
0.322419
0.387641
1.49379e-06
6.99369e-07
3.5149e-07
3.78853e-06
0.497206
0.497515
0.498906
0.498456
0.49803
0.496607
0.496377
0.49855
0.498924
0.498398
0.498104
0.498544
0.497352
0.496485
0.495403
0.498032
0.496424
0.497341
0.496041
0.497756
0.497403
0.497146
3.68891e-08
6.40604e-08
3.78755e-08
1.1226e-08
1.58066e-08
3.86256e-08
1.89296e-08
9.41782e-09
2.44626e-08
1.92106e-08
5.52835e-09
8.52905e-09
4.59112e-09
1.55262e-09
4.76564e-09
8.89666e-09
4.99567e-08
9.58507e-08
3.08658e-08
3.14052e-08
8.68115e-08
6.15248e-08
3.70638e-08
4.92736e-08
7.50694e-08
7.557e-08
4.31259e-08
1.65413e-08
1.9628e-08
9.49753e-09
3.81938e-08
2.26106e-08
4.13136e-08
5.45954e-08
3.31494e-08
2.62562e-08
1.33123e-08
2.09964e-08
7.62603e-07
9.5709e-07
1.59147e-06
1.00392e-06
2.00061e-06
3.14558e-06
1.47737e-06
2.09111e-06
5.50219e-07
2.78958e-06
1.95762e-06
2.38928e-06
1.36776e-06
1.23962e-06
8.7775e-07
3.05174e-06
2.60601e-06
1.80684e-06
1.73183e-06
0.000723542
0.000507511
0.000312485
0.000340488
0.000458157
0.000349522
0.000543479
0.000885469
0.000217973
0.000238461
0.000215842
0.000273701
0.000205291
0.000451714
0.000286
0.000752616
0.000417043
0.000267756
0.00016071
0.000116295
0.000194989
0.000108103
0.427145
0.409298
0.395066
0.407721
0.41926
0.432333
0.432768
0.413567
0.403361
0.386422
0.393816
0.408054
0.395717
0.402738
0.424031
0.424456
0.413878
0.390901
0.412374
0.00543147
0.00427869
0.00401318
0.00481345
0.00575803
0.00449599
0.00553534
0.00719906
0.00503003
0.00684413
0.00521155
0.00242607
0.00320889
0.00313973
0.00375765
0.00285797
0.00386518
0.21054
0.195529
0.189421
0.195726
0.195252
0.182011
0.169018
0.181396
0.181118
0.156878
0.18255
0.175155
0.155865
0.168656
5.28616e-09
9.64008e-09
1.20576e-08
1.55962e-08
2.29131e-08
2.40421e-08
7.6274e-09
1.30379e-08
3.82035e-08
6.37752e-08
6.57034e-08
1.12331e-08
2.24444e-08
3.43634e-08
3.43287e-08
1.21468e-08
2.04869e-08
3.7185e-13
6.05018e-13
6.30816e-13
4.14258e-13
5.23643e-13
9.18533e-13
2.59474e-13
3.9318e-13
1.10742e-12
6.69854e-13
1.32756e-12
1.15031e-12
1.08004e-12
1.56656e-12
2.38229e-13
7.02467e-13
2.37109e-12
1.94948e-12
2.60433e-12
8.98888e-13
5.65618e-13
4.07643e-13
4.57573e-13
2.3271e-13
3.04294e-13
1.59574e-13
3.63925e-13
3.5285e-13
2.56868e-13
6.14975e-13
8.80407e-13
4.92092e-13
7.2552e-13
9.47559e-13
1.39752e-12
1.38282e-12
1.67011e-12
2.32369e-12
5.86392e-13
1.02549e-12
1.88866e-08
3.21638e-08
2.26257e-07
1.53381e-07
3.63253e-07
2.60519e-07
3.70953e-08
5.9476e-08
6.20924e-08
5.71219e-08
9.78317e-08
2.17112e-07
2.5423e-07
5.47777e-07
6.19595e-08
1.36721e-07
1.33097e-07
0.413399
0.403901
0.400449
0.406881
0.40028
0.397464
0.388547
0.417436
0.410101
0.395736
3.32201e-05
3.40257e-05
7.7277e-05
5.71341e-05
7.79442e-05
6.74441e-05
6.82588e-05
8.18722e-05
0.000109798
8.06233e-05
0.00012957
0.000121501
9.15937e-05
4.58901e-05
4.36298e-05
5.37445e-05
9.16886e-05
6.46169e-05
0.0011339
0.00083048
0.000876332
0.000689023
0.00143961
0.00107056
0.00055263
0.000674677
0.00100966
0.00080654
0.000858888
0.0011348
0.0011153
5.06521e-12
2.95253e-12
6.46366e-12
3.82127e-12
3.7843e-12
1.1669e-11
5.45409e-12
3.12159e-12
2.31222e-12
3.9883e-12
8.92092e-12
4.08522e-12
1.70262e-12
2.34089e-12
0.00023632
0.000262011
0.000167877
0.000196229
0.000175641
0.000145727
0.000134443
0.000155448
0.000114014
7.90899e-05
8.6478e-05
0.000116759
6.84759e-05
8.74761e-05
0.000100693
3.34186e-15
6.91231e-15
1.64186e-15
5.05822e-16
7.4215e-15
9.87081e-16
2.08042e-11
5.11758e-12
4.78658e-14
1.61194e-13
2.54412e-10
5.88453e-11
4.39161e-14
8.51588e-13
2.71585e-13
6.5442e-13
3.90033e-12
1.37831e-11
0.5
0.5
0.5
0.5
0.5
0.5
0.5
0.5
0.5
0.5
0.0508213
0.0491448
0.040302
0.0411426
0.0629425
0.0549377
0.061529
0.0721912
0.0661825
0.0579839
0.0597465
0.0369807
0.0349306
0.0535047
0.0518413
0.0586932
0.0489145
0.0428945
0.0394572
0.042891
0.0373989
0.0481553
1.1779e-12
9.26612e-13
4.22425e-12
2.42974e-12
6.43526e-13
4.37284e-13
2.79878e-12
7.2377e-12
1.31163e-11
1.15303e-12
7.60118e-13
1.00081e-12
4.20322e-12
3.90453e-12
7.07846e-12
2.40748e-12
2.78735e-12
9.76042e-13
0.5
0.5
0.499999
0.5
0.499999
0.499999
0.499999
0.499999
0.499999
0.499998
0.499998
0.499999
0.5
0.499999
0.499999
0.499996
0.499997
0.499995
0.499998
0.255191
0.234887
0.305707
0.27547
0.202216
0.189052
0.096784
0.0738321
0.0817524
0.0529706
0.180345
0.191866
0.265526
0.237392
0.051964
0.0544325
0.0728369
0.168149
0.5
0.5
0.5
0.5
0.5
0.5
0.5
0.5
0.5
0.5
0.5
0.5
0.5
0.5
0.5
0.5
0.494895
0.4976
0.497115
0.495942
0.496486
0.495487
0.496348
0.495565
0.497117
0.496677
0.495209
0.495853
0.494624
0.499375
0.499064
0.499508
0.499607
0.499279
0.499148
0.499754
0.499627
0.499753
0.499678
0.499773
0.499691
0.49946
0.499634
0.499532
0.497887
0.497182
0.497223
0.496684
0.498431
0.497892
0.497324
0.496462
0.498774
0.498455
0.498411
0.497344
0.498359
0.498684
0.497824
0.497898
0.5
0.5
0.5
0.5
0.5
0.5
0.5
0.5
0.5
0.5
0.5
0.5
0.5
0.5
0.5
0.5
0.5
0.5
0.5
0.5
0.193932
0.170116
0.20024
0.262476
0.230117
0.291457
0.196053
0.276855
0.276933
0.315954
0.305616
0.234822
0.293354
0.248354
0.211976
0.237461
0.232118
0.169986
0.273026
0.199135
0.265306
0.247609
0.186943
0.238007
0.21577
0.314053
0.213211
0.229645
0.363853
0.386254
0.387332
0.327794
0.298931
0.5
0.5
0.5
0.5
0.5
0.5
0.5
0.5
0.5
0.5
0.5
0.5
0.5
0.5
0.5
1.97098e-05
1.91344e-05
2.96982e-05
4.03571e-05
3.07257e-05
2.15294e-05
1.44719e-05
1.52495e-05
1.48225e-05
0.5
0.5
0.5
0.5
0.5
0.5
0.5
0.5
0.5
0.499999
0.499999
0.499999
0.5
0.5
0.5
0.5
0.5
0.5
0.5
0.5
0.5
0.5
0.449718
0.453851
0.457858
0.442088
0.446236
0.454116
0.444353
0.450863
0.457189
0.444854
0.447536
0.432304
0.434792
0.438524
0.423003
0.428223
0.438062
0.447821
0.427127
0.437687
0.498477
0.498281
0.497729
0.498002
0.498418
0.495884
0.49555
0.497658
0.497088
0.498027
0.496949
0.495632
0.496349
0.496132
0.495359
0.49774
0.497425
0.498117
0.494226
0.497221
0.496252
0.496886
0.496106
0.492018
0.493552
0.494731
0.0107346
0.0120518
0.0104022
0.0088658
0.0204408
0.0171457
0.0146094
0.0173866
0.0134031
0.0223576
0.0191862
0.00821136
0.0096704
0.00939337
0.0101154
0.0157804
0.00951465
0.00768051
0.0128502
0.0127065
0.0160994
0.0201033
0.0176609
0.0132149
0.0146958
0.0120839
0.225954
0.215686
0.242043
0.225015
0.229257
0.241321
0.257949
0.209927
0.232227
0.200834
0.214618
0.210002
0.188496
0.238614
0.254888
0.250467
0.255784
0.225456
0.48378
0.481457
0.47749
0.479047
0.480684
0.475354
0.474641
0.478059
0.481908
0.476163
0.473233
0.474852
0.47902
0.49996
0.499983
0.49996
0.499953
0.499967
0.49999
0.499995
0.499988
0.499983
0.499983
0.499977
0.499985
0.499982
0.000278167
0.000240557
0.00023832
0.000216768
0.000188328
0.000203341
0.00014762
0.00012961
0.000130313
0.000239455
0.000162187
0.000158469
0.00019365
0.000210292
0.000181658
0.000208386
0.000179613
0.000141654
0.000162648
0.000138589
0.000254366
0.00025432
0.000209839
0.000242128
0.000377429
0.000367884
0.000287474
0.000314798
0.000681988
0.000796218
0.000951316
0.000869438
0.00113929
0.00102911
0.00145583
0.00122824
0.00180603
0.00138137
0.0016047
0.0012232
0.00105931
0.00122607
0.00166939
0.00153928
0.00488686
0.00485462
0.00177854
0.00196398
0.00369925
0.00411201
0.00240961
0.00232885
0.00267386
0.00355234
0.00441484
0.00467965
0.00318827
0.00325357
1.44898e-11
3.03922e-11
3.3234e-10
4.39645e-10
8.54502e-11
6.89385e-10
7.31586e-11
1.42277e-11
2.01714e-10
3.57896e-10
1.54796e-11
0.497088
0.497136
0.497756
0.498845
0.499258
0.498221
0.498865
0.498326
0.498735
0.498969
0.497887
0.498125
0.49835
0.44222
0.44943
0.437688
0.439983
0.442749
0.462384
0.451107
0.45234
0.462646
0.451943
0.467734
0.459291
0.46459
0.468372
0.457555
0.474855
0.463197
0.466455
0.465782
0.475264
0.457296
0.474607
0.497021
0.497685
0.497106
0.497475
0.49804
0.497729
0.498351
0.49829
0.498993
0.498394
0.498819
0.494181
0.495719
0.493348
0.494847
0.495551
0.496776
0.496161
0.496875
0.498943
0.498797
0.497479
0.49694
0.497556
0.498253
0.498032
0.498133
0.498205
0.498181
0.498007
0.5
0.5
0.5
0.5
0.5
0.5
0.5
0.5
0.5
0.5
0.5
0.5
0.5
0.41413
0.422707
0.422636
0.415434
0.429655
0.435282
0.440305
0.438877
0.443301
0.428079
0.433837
0.412468
0.405742
0.428825
0.442599
0.409634
0.417974
0.400713
0.419085
0.41296
0.425307
0.00605204
0.00698814
0.00711952
0.00888658
0.00667418
0.00553812
0.00956866
0.00979325
0.0107662
0.00869339
0.0127131
0.0126497
0.00701341
0.00827663
0.00797579
0.00894885
0.00802285
0.0102914
0.00489946
0.00224248
0.00317243
0.00255739
0.00400954
0.0024453
0.00605628
0.00449208
0.00202756
0.00531567
0.00452071
0.00232462
0.00410625
0.00333369
0.00194813
0.00176596
0.0035975
0.0022886
0.00111574
0.00425321
0.00203633
0.00246601
0.00250772
0.00329452
0.00175189
0.00137997
0.00171983
1.13143e-08
1.46177e-08
2.28714e-08
1.68188e-08
3.34651e-08
0.22272
0.204168
0.237584
0.262874
0.225677
0.253904
0.208359
0.126919
0.138334
0.19035
0.145782
0.136549
0.215936
0.178642
0.267643
3.74673e-13
6.86218e-13
9.46937e-11
3.653e-11
3.22462e-13
1.42726e-10
5.49618e-11
1.58213e-13
1.42022e-13
4.00374e-11
1.08278e-10
4.71689e-12
1.66237e-11
4.83765e-11
3.07296e-11
7.66794e-12
2.88357e-12
9.0187e-12
0.455849
0.452431
0.446803
0.45001
0.408586
0.401193
0.42149
0.421092
0.445002
0.44687
0.397037
0.387593
0.364794
0.370766
0.436423
0.446949
0.431965
0.384609
0.390116
0.431096
0.135246
0.147854
0.148485
0.14807
0.165285
0.161085
0.132657
0.12405
0.132145
0.159975
0.152845
0.165662
0.15018
0.145307
0.364223
0.380428
0.318098
0.324462
0.382036
0.363033
0.34316
0.366976
0.380302
0.33517
0.339935
0.328871
0.363256
0.354568
0.374868
0.352441
0.377497
0.364662
0.10551
0.0980285
0.0880633
0.0573532
0.0539477
0.0738778
0.108277
0.171743
0.0680526
0.0974498
0.117202
0.11492
0.129348
0.124499
0.119232
0.157103
0.073265
0.0882766
0.13668
0.135153
0.150068
0.155228
0.404298
0.393611
0.377866
0.369261
0.405611
0.386226
0.397458
0.426071
0.416413
0.393801
0.385256
0.385441
0.396332
0.416718
0.407623
0.371206
0.406663
0.395209
0.375022
0.385482
0.491538
0.489407
0.488663
0.496384
0.485075
0.493573
0.483708
0.481019
0.483487
0.49122
0.489618
0.491037
0.492981
0.492334
0.488789
1.74861e-07
7.0256e-08
1.31966e-07
2.9561e-07
6.03265e-07
2.06881e-07
2.5795e-07
1.60484e-06
0.195402
0.189239
0.225757
0.231419
0.215751
0.207608
0.222748
0.200106
0.208408
0.197622
0.183494
0.186857
0.225008
0.241791
0.24425
0.227962
0.21552
0.230893
0.216731
0.248188
0.234194
0.257287
0.238678
0.256644
0.218344
0.225275
0.205137
0.246145
0.26368
0.250571
0.189026
0.195184
0.168393
0.178645
0.211493
0.204191
0.173593
0.18543
0.182634
0.178457
0.191388
0.206407
0.206541
0.173509
0.173348
0.207031
0.2016
0.188219
1.25777e-10
7.11549e-11
9.32118e-11
1.43333e-10
1.6075e-10
3.26468e-10
2.34437e-10
1.3027e-10
2.15746e-10
2.55268e-10
2.39379e-10
3.9977e-10
4.72302e-10
6.53856e-10
2.25817e-10
4.30198e-10
6.12399e-10
4.2793e-10
1.27529e-09
9.77769e-10
4.05666e-10
7.21891e-10
0.5
0.5
0.5
0.5
0.5
0.5
0.5
0.5
0.5
0.5
0.5
0.5
0.5
0.5
0.5
0.5
0.000375952
0.00021935
0.00011864
0.000252813
0.000660846
0.000916021
0.00162612
0.000540519
0.00106573
0.00147421
0.00235439
0.00168875
0.00200394
0.000775556
0.000876999
0.0033022
0.00270869
0.00145509
5.8277e-07
1.90827e-07
1.19792e-07
4.27e-07
2.80708e-07
4.41427e-07
1.81666e-07
1.10857e-07
3.34957e-07
2.21455e-07
4.27837e-07
6.82604e-07
8.85904e-07
9.58853e-07
3.00936e-07
5.36078e-07
0.471258
0.47457
0.47389
0.469401
0.466023
0.470241
0.465791
0.472895
0.477063
0.467184
0.469415
0.476744
0.472626
0.478054
0.463189
0.463068
0.464288
0.456667
0.460128
0.463966
0.381834
0.37007
0.335695
0.341561
0.408119
0.405131
0.427183
0.400222
0.3818
0.383484
0.42578
0.408792
0.42278
0.413918
0.434393
0.435857
0.0200028
0.0192661
0.0290963
0.0284119
0.0238325
0.0285654
0.0358457
0.0246272
0.0309092
0.027124
0.0240394
0.0329993
2.46607e-08
1.75553e-08
2.43178e-08
1.18689e-08
1.53931e-08
1.78167e-08
1.48736e-08
2.84861e-08
8.57512e-09
9.94641e-09
1.06395e-08
8.75206e-09
1.77134e-08
1.79832e-08
6.38086e-09
6.33142e-09
1.19525e-08
0.0499463
0.0475608
0.0266789
0.032809
0.0395025
0.0467887
0.0569646
0.0604079
0.0563698
0.0452392
0.0466129
0.0383397
0.0306883
0.0375505
0.0430558
0.0386454
0.0395193
0.0502155
0.182296
0.177984
0.181733
0.193077
0.198821
0.193876
0.19124
0.205782
0.214246
0.24788
0.234611
0.209723
0.217821
0.269942
0.257987
0.216223
0.236606
0.221536
0.243976
0.223495
0.296139
0.30603
0.34467
0.339591
0.318599
0.309895
0.340477
0.344331
0.310236
0.325043
0.322964
0.328387
0.499955
0.499932
0.49991
0.499933
0.499922
0.499949
0.499937
0.499925
0.49991
0.499932
0.499891
0.499897
0.49989
0.499853
0.5
0.5
0.5
0.5
0.5
0.5
0.5
0.5
0.5
0.5
0.5
0.5
0.5
0.5
6.01299e-11
6.90033e-11
1.23079e-10
1.01481e-10
4.88545e-11
8.16239e-11
2.42098e-11
6.12723e-11
4.32165e-11
1.28849e-10
3.03725e-10
1.60626e-10
4.19279e-11
7.90922e-11
1.50616e-10
0.414678
0.421925
0.444274
0.433152
0.419095
0.423442
0.432271
0.430585
0.444065
0.452806
0.412493
0.407815
0.421745
0.426126
0.438868
0.424439
0.432537
8.32051e-09
4.73299e-09
1.11923e-08
1.22778e-08
1.80099e-07
1.04323e-07
2.35901e-08
1.49635e-08
1.66943e-07
2.99512e-07
7.33829e-09
7.41263e-08
2.28374e-07
3.47758e-08
1.33021e-07
1.10431e-07
1.38342e-07
1.08785e-07
5.52254e-07
4.48226e-07
7.43022e-07
2.27056e-07
3.38073e-06
2.67079e-06
2.26584e-06
2.76751e-06
3.77923e-06
3.82503e-06
3.14195e-06
4.72197e-06
3.51892e-06
5.2476e-06
4.27906e-06
5.36944e-06
3.08419e-06
5.307e-06
3.97325e-06
0.000168474
0.000249147
0.000179438
0.00013059
0.000178517
9.44968e-05
7.98691e-05
0.000114205
0.000121037
8.96367e-05
5.85e-05
0.00013203
0.000104493
0.000140767
6.52879e-05
8.94839e-05
0.00011312
0.000147025
0.000335623
0.000262694
8.41465e-05
8.45506e-05
6.11754e-05