/*--------------------------------*- C++ -*----------------------------------*\
  =========                 |
  \\      /  F ield         | OpenFOAM: The Open Source CFD Toolbox
   \\    /   O peration     | Website:  https://openfoam.org
    \\  /    A nd           | Version:  10
     \\/     M anipulation  |
\*---------------------------------------------------------------------------*/
FoamFile
{
    format      ascii;
    class       volScalarField;
    location    "4";
    object      eff_dif;
}
// * * * * * * * * * * * * * * * * * * * * * * * * * * * * * * * * * * * * * //

dimensions      [0 2 -1 0 0 0 0];

internalField   nonuniform List<scalar> 
75457
(
-0.0473614
-0.0426948
-0.0395781
-0.0357585
-0.0305473
-0.0329656
-0.0425531
-0.0431986
-0.0298106
-0.0236808
-0.0275118
-0.0306523
-0.0304574
-0.0276587
-0.00344916
-0.00425267
-0.00467206
-0.00395857
-0.00484934
-0.00454456
-0.00355035
-0.00470258
-0.00428369
-0.00474246
-0.00471581
-0.00540501
-0.00472081
-0.000876668
-0.000904883
-0.000423549
-0.000221186
-0.000437039
-0.000399662
-0.00044091
-0.00019917
-0.000931714
-0.000806616
-0.000919962
-0.00112775
-0.000312659
-0.00070512
-0.000356917
-0.000730371
-0.0111719
-0.0105621
-0.0101638
-0.0103307
-0.0107098
-0.0053954
-0.0059571
-0.00631985
-0.00582741
-0.00571704
-0.00582068
-0.00635455
-0.00644172
-0.00603885
-0.00629499
-0.00580593
-0.00600298
-0.00575715
-0.00575419
0.0258527
0.0261396
0.0258768
0.026231
0.0264959
0.0265097
0.026141
0.0261819
0.0264829
0.0262611
0.0259503
0.026253
0.0262377
0.0258903
0.0261241
-0.00687538
-0.0081407
-0.00672568
-0.00851771
-0.0114561
-0.00453404
-0.00486894
-0.00785403
-0.00901568
-0.00804235
-0.00840853
-0.00422649
-0.00673974
-0.00463192
-0.00553419
-0.00785944
-0.00617537
-0.00964978
-0.00985301
-0.00985603
-0.010165
-0.00990047
-0.0096682
-0.010743
-0.0100758
0.027027
0.0269176
0.0271768
0.0271934
0.0270615
0.026913
0.0268323
0.0272808
0.0272829
0.0268998
0.0269086
0.0177349
0.0183955
0.0208308
0.020408
0.0177921
0.0193661
0.0193966
0.0188654
0.0192252
0.0209018
0.0206906
0.0212252
0.0217583
0.0205214
0.0199605
0.0187702
0.0211763
0.0201778
0.00963966
0.00960442
0.00907348
0.00992474
0.00954833
0.0109896
0.0106922
0.0105753
0.0105732
0.00423917
0.0038002
0.00434538
0.00391505
0.00340116
0.00385614
0.00389514
0.00301072
-0.00926394
-0.00927287
-0.00872552
-0.00889087
-0.00921053
-0.00892141
-0.00871997
-0.00829982
-0.00682696
-0.00690765
-0.00820585
-0.00795685
-0.00760655
-0.00818004
-0.00715522
0.0120015
0.0135816
0.0138195
0.0131664
0.0135822
0.00990979
0.0112987
0.0128355
0.0118428
0.0128004
0.0101487
0.00884867
0.00944099
-0.0117603
-0.0121668
-0.0120216
-0.0122171
-0.0119405
-0.0121062
-0.0116033
-0.0123753
-0.0121351
-0.0123492
-0.0123267
-0.0123159
-0.0122252
-0.0122087
-0.0114596
-0.00980967
-0.0119545
-0.0102931
-0.0101001
-0.011853
0.0058497
0.00655476
0.00520666
0.00609681
0.00434766
0.00509947
0.00749482
0.00715442
0.00634443
0.00370655
0.00365672
-0.0109944
-0.0108218
-0.0111691
-0.0111132
-0.0111455
-0.0110715
-0.0108815
-0.0107129
-0.0102043
-0.0111314
-0.0109585
-0.0106699
-0.0110311
-0.0105318
0.00157066
0.00072439
0.00106678
-0.000450655
2.13382e-05
0.000656698
0.000460602
0.0016751
0.00126297
0.000469223
-0.000128227
-0.000636613
0.00135864
-0.000119082
-0.0101518
-0.0102438
-0.009537
-0.00936795
-0.00982329
-0.00973661
-0.0101465
-0.0100088
-0.0103632
-0.00939005
-0.0097398
-0.00911617
-0.00989183
-0.0102078
-0.00981986
-0.00960365
-0.00991742
-0.01375
-0.0134896
-0.0133526
-0.0134112
-0.0148316
-0.0133963
-0.0135531
-0.0127193
-0.0131281
-0.0139105
-0.0125534
-0.0138897
-0.0101905
-0.0103803
-0.0102955
-0.0102188
-0.0102301
-0.00993531
-0.0102319
-0.0100473
-0.0100083
-0.0101354
-0.0101275
-0.0099951
-0.0100236
-0.00746368
-0.00730869
-0.00751301
-0.00718944
-0.00717712
-0.00703298
-0.00685809
-0.00688191
-0.00684006
-0.0071715
-0.00745661
-0.00731134
-0.00678127
-0.00707947
-0.00708224
-0.000168308
-5.77798e-05
-0.000131752
-0.000273451
-8.27021e-05
-1.42563e-05
-0.000381619
-0.000320916
-7.16915e-05
0.000162762
0.00105927
0.000555836
0.000957525
0.00133409
0.00224139
0.00129268
0.00113693
0.00128012
0.000919306
0.000973461
-0.000146562
0.000534056
-0.00307242
-0.00485082
2.51241e-05
-0.00154101
-0.00251589
-0.00454851
-0.00472153
-0.00162094
-0.00468789
-0.00472891
-0.00361737
-0.00852999
-0.00861593
-0.00877757
-0.00872364
-0.0086137
-0.00847687
-0.00848067
-0.00880418
-0.00902599
-0.00890423
-0.00905905
-0.00834594
-0.00864666
-0.00871877
-0.00885985
-0.00860966
-0.00878019
-0.0109517
-0.010708
-0.010472
-0.0115777
-0.0154918
-0.0144376
-0.014517
-0.0123218
-0.012627
-0.0120914
-0.0134016
-0.00298905
-0.00364449
-0.0042065
-0.00413526
-0.0036941
-0.00373057
-0.00305334
-0.00385312
-0.00415909
-0.00342783
-0.00366666
-0.000162011
-0.000148569
-0.000240429
-0.000343862
-0.000120291
-0.000118399
-0.000287659
-0.00011943
-0.000355281
-0.000446175
-0.000408759
-0.000177267
-0.000297282
-0.000667086
-0.000607339
-0.00572059
-0.00321485
-0.00673933
-0.00548833
-0.00524127
-0.00861004
-0.00914659
-0.00865385
-0.00910585
-0.00914508
-0.00863947
-0.00961062
0.0447698
0.0495393
0.0381601
0.0408227
0.0435928
0.0455752
0.0453328
0.0481506
0.040596
0.0450349
0.0433894
0.0443515
0.0403008
0.0447782
0.0391989
0.0405592
0.042488
0.0375905
0.0294839
0.0290293
0.0297129
0.0303996
0.0313162
0.0322369
0.0297405
0.0303955
0.0327652
0.0361499
0.0329349
0.0332231
0.0349809
0.0206235
0.0178708
0.0154706
0.0171319
0.0215226
0.0182268
0.0168353
0.0182947
0.0178781
0.0159885
0.0232169
0.023209
0.0165505
0.0181009
0.0154732
0.0215766
0.0237016
0.0238151
0.0198814
0.0198696
0.0204578
0.0217687
-0.0124921
-0.0132063
-0.0134012
-0.013385
-0.0135268
-0.0127284
-0.0129547
-0.0130801
-0.0130858
-0.0126391
-0.0132361
-0.012837
-0.0130491
-0.0128316
-0.0130765
-0.0128528
-0.0386772
-0.0434393
-0.0258191
-0.0318728
-0.0243002
-0.0323067
-0.0301052
-0.0276083
-0.02392
-0.0299677
-0.0485202
-0.042912
-0.0282291
-0.0386508
-0.0252054
-0.0260928
-0.00103232
-0.00116175
-0.000994681
-0.000251172
4.3722e-05
0.000652772
-0.00137695
-0.00165383
-0.00011031
-0.000130146
0.00066323
0.000317183
0.000105276
4.70054e-05
-0.000148472
-0.00073918
-0.00140467
-0.000700547
0.0286831
0.0329089
0.0315059
0.027943
0.029268
0.0320663
0.035535
0.0345701
0.0296636
0.0355813
0.037318
0.0355296
0.0316792
0.0284443
0.0292366
0.0301433
0.0219115
0.0212918
0.0217989
0.0215687
0.0207638
0.0224941
0.023078
0.022477
0.0218381
0.0228224
0.0222602
0.021444
0.0222885
0.0207254
0.021397
0.0229099
0.0233895
0.00821105
0.00803337
0.00779347
0.00812848
0.00813871
0.00822896
0.00828695
0.00830343
0.00829262
0.00815701
0.00789745
0.00801572
0.00838548
0.00806108
0.00827723
0.00751877
0.00754523
-0.00428669
-0.0050845
-0.00645503
-0.00555897
-0.00498467
-0.00441416
-0.00491676
-0.00442799
-0.00560154
-0.00546186
-0.00650301
-0.00617973
-0.00497439
-0.00552342
-0.00704168
-0.00554418
-0.00460165
-0.00570665
-0.0040212
-0.00434226
-0.00380351
-0.00387313
-0.00343457
-0.00345044
-0.00356521
-0.00370759
-0.00316318
-0.00336728
-0.00339981
-0.00297679
-0.00281807
-0.00327169
-0.00681543
-0.00632909
-0.00731916
-0.00807061
-0.00838636
-0.00786919
-0.00710556
-0.00701482
-0.00691337
-0.00834634
-0.00830737
-0.00792
-0.00736504
-0.00688167
-0.00733492
-0.0078708
-0.0079626
-0.00818802
0.0160207
0.0117704
0.0126278
0.0194955
0.0157808
0.00987714
0.0127888
0.0131306
0.00952284
0.0179784
0.0130432
0.0101141
-0.0107584
-0.0103744
-0.0100175
-0.00983223
-0.0101507
-0.0105796
-0.00845511
-0.00911312
-0.0106318
-0.0100834
-0.0102092
-0.00924474
-0.00942515
-0.010305
-0.0101066
-0.0100581
-0.00466677
-0.00515777
-0.00416477
-0.00458748
-0.00552893
-0.00562105
-0.00501116
-0.00385332
-0.00385977
-0.00412747
-0.00409781
-0.00521886
-0.00545416
-0.00437628
-0.00395631
-0.00489772
0.00136655
0.00068823
3.07147e-05
0.00303432
0.00392465
0.00157124
0.00222749
-0.000758764
0.000751785
0.00138549
0.00293573
0.00187487
0.00286751
0.00360276
0.00332069
0.000422672
0.000531545
0.00172822
-1.29836e-05
-0.00147248
-0.0010435
-0.00133031
-0.00263341
-0.00183371
-0.00138408
-0.00282435
-0.00256422
-0.001604
-0.00199046
-0.0020742
-0.00293509
-0.00196413
-0.00187335
0.0001022
0.000110266
-0.000643078
-0.000603796
-0.000480058
-0.00051578
-0.00056305
-0.000290748
-0.000418785
-0.000490715
-0.000665013
-0.000350228
-0.000647753
-0.00045844
-0.00030372
-0.000447414
-0.000398929
-0.000621802
-0.00615429
-0.00674201
-0.00593191
-0.00474302
-0.00536538
-0.00865249
-0.00631494
-0.00594709
-0.00612507
-0.0069989
-0.00836725
-0.00879563
-0.00887673
-0.00909168
-0.00939349
-0.00959272
-0.0095804
-0.00924524
-0.0106314
-0.00770043
-0.00729656
-0.00916766
-0.00995548
-0.00956889
-0.00938686
-0.00920566
-0.00977921
-0.00922631
-0.00791861
-0.00834846
-0.00875115
-0.00819777
-0.0130935
-0.0131878
-0.0128517
-0.0131053
-0.0127249
-0.0130189
-0.0130181
-0.0129049
-0.0126757
-0.0126535
-0.0129259
-0.0126427
-0.0129075
-0.0126245
-0.0127719
-0.0127546
-0.0127045
-0.00757042
-0.00760706
-0.0100566
-0.0113304
-0.00856707
-0.00888293
-0.0107707
-0.0109776
-0.00913581
-0.0109222
-0.00953639
-0.00243553
-0.00225528
-0.00172829
-0.000652998
-0.00121437
-0.000160065
-0.000769949
0.000479468
-0.0011297
-0.000924327
-0.000704859
-0.000980412
0.000559381
-0.0022286
-0.00190879
-0.00209156
-0.00237007
-0.00226407
-0.00173587
-0.00203743
-0.00178101
-0.00238821
-0.0023628
-0.0016374
-0.00160437
-0.00212833
-0.00135924
-0.00208161
-0.00183902
-0.00143509
-0.00187048
-0.00153539
-0.00189126
-0.00204997
-0.0014845
-0.0071788
-0.00723966
-0.00753001
-0.00728122
-0.00667661
-0.00577498
-0.00705921
-0.00583536
-0.00622555
-0.00511493
-0.00544432
-0.00589316
-0.00676688
-0.00568588
-0.00572718
-0.0069667
-0.00577579
-0.00509467
-0.00553756
-0.00497823
-0.00695042
-0.00697429
-0.00732428
-0.00736987
-0.00658638
-0.00655436
-0.00737416
-0.00717061
-0.00702399
-0.0060851
-0.00639079
-0.00637743
-0.00608374
-0.00638804
-0.0065396
-0.00677784
-0.00599377
-0.00604892
-0.00653696
-0.00678219
-0.00599296
-0.00613611
-0.00610368
-0.00749773
-0.00633767
-0.00707221
-0.00648918
-0.00770776
-0.00569213
-0.00557663
-0.00503756
-0.00601123
-0.00696518
-0.00673854
-0.00721808
-0.00617594
-0.0058493
-0.00683869
-0.00655283
-0.00748713
-0.00715314
-0.00858023
-0.00778007
-0.00869466
-0.00962701
-0.00907927
-0.0086124
-0.00815156
-0.00806576
-0.00905173
-0.0093087
-0.00985058
-0.00848449
0.0170093
0.0176447
0.018595
0.0174404
0.0182635
0.017125
0.0181683
0.0169452
0.0174795
0.0185074
-0.0116715
-0.0114825
-0.0107887
-0.0107968
-0.01178
-0.0116287
-0.0110617
-0.0112779
-0.0115572
-0.0107383
-0.0112134
-0.0109155
-0.0109935
-0.0115322
-0.0110458
-0.0113734
-0.0115633
-0.0148044
-0.014355
-0.0158787
-0.0154555
-0.0153162
-0.0159006
-0.014303
-0.0145918
-0.0140637
-0.0143273
-0.0152129
-0.0152106
-0.0138088
-0.01484
-0.0148391
-0.0146094
-0.0148556
-0.0153779
-0.0142427
-0.0144438
0.00769263
0.00809645
0.00882809
0.00823724
0.00784894
0.00905886
0.00552622
0.00709995
0.0073545
0.00703596
0.00632816
0.0084719
0.00793511
0.00848572
0.0075895
0.00715424
-0.0157435
-0.0163461
-0.0155001
-0.0143756
-0.0150904
-0.0127682
-0.0141382
-0.0144045
-0.0152965
-0.0162226
-0.0117127
-0.0138121
-0.0145803
-0.0133888
-0.0141732
-0.0126481
-0.0120397
-0.0119664
-0.012853
-0.0131746
-0.0135367
-0.0120245
-0.0116573
-0.0114678
-0.0123881
0.00737
0.00639263
0.00605426
0.00612958
0.00613287
0.00475173
0.00438191
0.00383599
0.00393508
0.0044407
0.00451547
0.00364495
0.00524565
0.00444582
0.00608499
0.00620379
0.00438047
0.0053793
0.0050255
-0.0114919
-0.0114317
-0.0127631
-0.0123398
-0.0136017
-0.0116176
-0.0112165
-0.0123067
-0.0123214
-0.0114718
-0.0113402
-0.0124853
-0.0126953
-0.0132433
-0.0120542
-0.0119473
-0.0116294
-0.0127725
-0.0121139
-0.00624757
-0.00814638
-0.00674883
-0.00563645
-0.00679419
-0.00740019
-0.00680929
-0.00595168
-0.00624435
-0.00850238
-0.00824626
-0.00738709
-0.00666227
-0.00653525
-0.00787475
-0.00819593
0.0159098
0.0164366
0.0156746
0.0155205
0.0165967
0.0175303
0.017539
0.0165107
0.0164267
0.0172724
0.0174706
0.0165245
0.0175472
0.018036
0.018768
0.0181707
-0.0105319
-0.0119634
-0.00885159
-0.00886566
-0.0131942
-0.0152131
-0.00650642
-0.00753407
-0.0116298
-0.0133377
-0.0100115
-0.0103377
-0.0113171
-0.0155077
-0.0142628
-0.00815135
-0.0132721
-0.0109199
-0.0132187
-0.014863
0.0535377
0.0475686
0.0432792
0.0429504
0.0520226
0.0533037
0.0468081
0.0516188
0.0458094
0.0478036
0.0453841
0.045858
0.0426647
0.0425308
0.0482441
0.0164255
0.0149336
0.0197681
0.0210165
0.0188331
0.015959
0.0215272
0.0180787
0.0205963
0.0238244
0.0226145
0.023929
0.0257799
0.0232864
-0.0158474
-0.0165414
-0.0160309
-0.0167446
-0.01516
-0.0154418
-0.0139903
-0.0129793
-0.0149258
-0.0148311
-0.0133287
-0.0129273
-0.0152731
-0.0138834
-0.013522
-0.014071
-0.00585722
-0.00547012
-0.00551858
-0.00560603
-0.00541176
-0.0058535
-0.00565953
-0.00589028
-0.00605882
-0.00516256
-0.00518285
-0.00514589
-0.0058967
-0.00594499
-0.00512483
-0.00564904
-0.00556753
-0.00598586
-0.00573562
-0.0136228
-0.0135362
-0.0132645
-0.0142789
-0.0142676
-0.0142593
-0.013238
-0.0144051
-0.014165
-0.01255
-0.0131578
-0.0132041
-0.0132952
-0.0130314
-0.0145821
-0.0142692
-0.0128734
-0.0134379
-0.0131606
-0.01322
-0.0126725
-0.012756
-0.0134392
-0.0127402
-0.0127235
0.0253783
0.0245122
0.0245549
0.0250473
0.0252341
0.0247948
0.0245665
0.0246216
0.0253361
0.0251105
0.0251853
0.0249145
0.0250586
0.0248194
0.0251591
0.0252175
0.0252039
0.0249807
0.0246218
0.0252989
-0.00930496
-0.0100872
-0.00926172
-0.0098548
-0.00934966
-0.00899445
-0.00913576
-0.00991038
-0.00895929
-0.00928491
-0.00949998
-0.00964911
-0.00452227
-0.00446947
-0.00397871
-0.00373311
-0.00356209
-0.00454669
-0.00459554
-0.0047976
-0.00438033
-0.00379031
-0.00375659
-0.00399519
-0.0042544
-0.00367562
-0.00388586
-0.0040573
-0.00407646
-0.00398507
-0.00291753
-0.00276826
-0.0029976
-0.00272966
-0.00285312
-0.00319956
-0.00326832
-0.00347181
-0.00349638
-0.00277679
-0.00319566
-0.00288691
-0.00351433
-0.00338865
-0.00302432
-0.00284552
-0.00355316
-0.00323049
-0.00281366
-0.00210026
-0.00219425
-0.00237904
-0.00157695
-0.0020039
-0.00186853
-0.00157114
-0.00248568
-0.00213369
-0.00253597
-0.00232982
-0.00170104
-0.00166024
-0.00189847
-0.00264558
-0.00257746
-0.0066402
-0.0061423
-0.00691656
-0.00663627
-0.00570914
-0.00565501
-0.00586476
-0.006752
-0.00712931
-0.0125572
-0.0122806
-0.0122466
-0.0126002
-0.0124662
-0.0125484
-0.0122955
-0.0126727
-0.0124723
-0.0124767
-0.0125714
-0.0125189
-0.00417053
-0.00387193
-0.00417544
-0.00413196
-0.00414563
-0.00428179
-0.0043421
-0.00437474
-0.00449921
-0.00425744
-0.00482992
-0.00469265
-0.00473935
-0.00486472
-0.00466759
-0.004695
0.0254717
0.0256336
0.0254354
0.0251534
0.024765
0.024767
0.0243605
0.0243081
0.02461
0.0251716
-0.00864423
-0.00852765
-0.00876531
-0.00854544
-0.0087684
-0.00871795
-0.00895904
-0.00890163
-0.00892597
-0.00896183
-0.00878211
-0.00863125
-0.00885401
-0.00909498
-0.00900539
-0.00883005
-0.00877316
-0.00880679
-0.00559598
-0.00608054
-0.0055775
-0.00573386
-0.00570525
-0.00564677
-0.00592981
-0.00563034
-0.00583841
-0.00627835
-0.00593037
-0.00622316
-0.00596993
-0.00616648
-0.00560211
-0.00592368
-0.00607483
-0.00586699
0.00501335
0.00443841
0.00389606
0.00478799
0.00294633
0.00247137
0.00534991
0.00486285
0.00367354
0.00499851
0.00405141
0.00324258
0.00391579
0.00394185
0.0257778
0.0256803
0.0255435
0.0253763
0.0258318
0.0254052
0.0252226
0.0252584
0.0255744
0.0253833
0.025578
0.0257038
0.025253
0.025225
0.0251144
0.025156
0.0255439
0.0253375
0.025493
0.0252511
0.0398113
0.0383746
0.0310306
0.0343575
0.0243411
0.0283452
0.0149801
0.0298104
0.0296105
0.0268687
0.0325004
0.0234631
0.0348597
0.0400057
0.0360441
0.043798
0.0247694
0.0363278
0.0317652
-0.0152838
-0.0164728
-0.0118023
-0.0109279
-0.0160575
-0.0191586
-0.0192744
-0.0220112
-0.0116661
-0.0116515
-0.0247839
-0.0213217
-0.014611
-0.0181995
-0.0208598
-0.0149808
-0.015564
-0.0223274
-0.0181341
-0.018944
-0.000110661
-0.000547185
-0.000215462
-0.000409195
-0.000654244
-0.000260372
-0.00109911
-0.000136543
-0.000671862
-0.000772086
-0.000333775
-0.000639707
-0.000767262
-0.000219338
-0.000870654
-0.0010864
-0.000860824
-0.000761106
-0.000300438
-0.00812566
-0.00840467
-0.0147406
-0.0157456
-0.0105711
-0.00990746
-0.00957473
-0.0107146
-0.0136179
-0.0107025
-0.0123887
-0.011859
-0.0134356
-0.0130942
-0.0140781
-0.0138265
0.0278471
0.0277984
0.0276661
0.0277421
0.0280096
0.0280259
0.0279056
0.0279324
0.0277452
0.027613
0.028121
0.0278993
0.0280638
0.0280602
0.0276922
0.0276129
0.0277766
0.0279428
0.0280728
0.0276765
-0.00268601
-0.00278958
-0.00226189
-0.0018658
-0.00450215
-0.00455615
-0.00488642
-0.00567436
-0.00386024
-0.00262088
-0.00233056
-0.00450417
-0.00478715
-0.00527965
-0.0059655
-0.00589915
-0.00380964
-0.00542658
-0.00522658
-0.00423633
0.0278576
0.0277213
0.0278034
0.0278456
0.0278349
0.0278667
0.0277919
0.0279154
0.0279826
0.0279989
0.0280691
0.0277668
0.0279295
0.0279167
0.0280176
0.0280023
0.0278801
-0.0055286
-0.00542862
-0.00560759
-0.00583612
-0.00573887
-0.00542943
-0.0052122
-0.00557186
-0.00569009
-0.00583496
-0.0052451
-0.00488889
0.0258013
0.0256228
0.0261769
0.0261839
0.0259331
0.0258844
0.0255268
0.0257378
0.025982
0.0261372
0.0261804
0.0258113
0.0256247
0.0257433
0.0255534
0.0257435
0.0255391
0.0258116
0.0258785
0.0255367
0.0257833
0.0191971
0.0187607
0.0188511
0.0192703
0.0193274
0.0184936
0.0188881
0.0205282
0.020706
0.020501
0.019795
0.0194457
0.0190646
0.0189855
0.0190412
0.0197092
0.0196232
0.0195983
0.00522863
0.00551968
0.00555599
0.00509359
0.0054066
0.00610755
0.00572827
0.00570453
0.00551346
0.00667166
0.00643704
0.00670785
0.00653294
0.00561462
0.00532346
0.0461384
0.0410637
0.0352413
0.0366693
0.0430148
0.0410704
0.0524926
0.0379088
0.0447827
0.0396873
0.052086
0.0518667
0.0475952
0.0408896
-0.00457711
-0.00442634
-0.0046691
-0.00504083
-0.00488666
-0.00509164
-0.00467509
-0.00463647
-0.00485774
-0.00468435
-0.00525351
-0.00516861
-0.00494344
-0.00440328
-0.00459747
-0.00490496
0.0217847
0.0197432
0.0213703
0.0195813
0.0192474
0.0196296
0.0199424
0.0199984
0.0208446
0.0212424
0.0236871
0.0231823
0.0222096
0.0245129
0.0250939
0.0225288
0.0235502
0.0270339
0.0269854
0.026576
0.0266813
0.0267784
0.0268427
0.02706
0.0271022
0.0265361
0.0266588
0.0270106
0.0270314
0.0269908
0.0268593
0.0268184
0.0269846
0.0267826
-0.0206737
-0.0182156
-0.0179794
-0.0223231
-0.0176913
-0.0229788
-0.0295167
-0.0173172
-0.0205707
-0.0207145
-0.0196932
-0.0214564
-0.0232871
-0.0184343
-0.0187568
-0.0189191
-0.0150147
-0.0161441
0.013904
0.0135807
0.0151793
0.0148661
0.014139
0.0128755
0.0132535
0.0147882
0.0152933
0.0148985
0.0146338
0.0149513
0.0132631
0.0130191
0.0124054
0.0142077
0.0130719
0.0136739
0.0126777
0.0141676
0.013474
0.0132532
-0.00472679
-0.00549245
-0.00525886
-0.00513943
-0.00342727
-0.00373069
-0.00200893
-0.00215238
-0.00372552
-0.00407183
-0.00451808
-0.00304575
-0.00229109
-0.00215111
-0.00215053
-0.00197224
-0.00435421
-0.0048568
-0.00412434
-0.00423557
-0.00469203
-0.00445255
-0.0042493
-0.00460728
-0.00489432
-0.00471993
-0.00476272
-0.0040555
-0.00408195
-0.00397248
-0.00415289
-0.00412988
-0.00482141
-0.0048189
-0.00472649
-0.00443108
-0.00406856
-0.00448493
-0.00518549
-0.00527256
-0.00532733
-0.00544054
-0.00563726
-0.00577047
-0.00526238
-0.00571241
-0.00504562
-0.0053752
-0.00496162
-0.0056436
-0.00475429
-0.00497638
-0.00479973
-0.0056559
-0.00508584
-0.00488912
-0.005601
-0.00697677
-0.00620677
-0.00596497
-0.00859354
-0.0057715
-0.00206369
-0.00964816
-0.00953603
-0.000803301
-0.00303164
0.00105921
-0.00568919
-0.000920041
-0.00576415
-0.0041461
-0.0079439
-0.00768121
-0.00456846
-0.00326846
0.000888331
-0.00228324
0.00143826
0.00273127
0.0012717
0.000660857
0.00108598
0.00163283
0.00313543
0.00300905
0.00212321
0.00142799
0.000673007
0.00100378
0.00110123
0.000816921
0.00178568
0.00162852
0.00270189
0.00152727
0.000831779
0.00144037
-0.0102112
-0.00977786
-0.00985439
-0.0100615
-0.0101962
-0.0101856
-0.0104504
-0.0107241
-0.0100991
-0.0107849
-0.0103275
-0.00998885
-0.0101201
-0.0100118
-0.0101289
-0.0100242
-0.0101113
-0.00716133
-0.00730009
-0.0085238
-0.0081189
-0.00790818
-0.00815389
-0.0083196
-0.00805101
-0.00750288
-0.00822365
-0.00767942
-0.00823359
-0.00789864
-0.00796703
-0.00267614
-0.00282259
-0.00306427
-0.00321108
-0.00354869
-0.00366967
-0.00270756
-0.00366641
-0.00404201
-0.0044353
-0.00443303
-0.00305339
-0.00330143
-0.00404898
-0.00413036
-0.00299096
-0.00338055
-1.37505e-05
2.34081e-05
-0.000144185
-3.04487e-05
-7.66772e-05
-0.000112924
-0.00012038
2.10251e-05
-3.94591e-05
-0.000100971
-0.000198951
-0.000353214
-0.000530539
-0.000312107
-0.000144559
-0.000216429
-0.000279123
-0.000322415
-0.000303183
-0.000424641
-0.000215312
-0.000125079
-0.00049364
-3.54213e-05
-0.000212971
-0.000268748
-0.000183764
-0.00041773
-0.000283553
-0.000114921
-0.000303658
-2.29475e-05
-9.37884e-05
-0.000272237
-0.000513317
-0.000165175
-0.000259154
-0.000453416
-0.000152633
-0.000267535
-0.0145184
-0.0171687
-0.0204416
-0.0217725
-0.0208947
-0.0220677
-0.0147087
-0.0185426
-0.0202063
-0.0139964
-0.0158128
-0.0170785
-0.0199114
-0.0185037
-0.0177128
-0.0176343
-0.0157558
-0.0023584
-0.00234063
-0.00272948
-0.00158621
-0.00218113
-0.00295435
-0.00322726
-0.00150922
-0.00178965
-0.00268238
-0.00940886
-0.00947879
-0.00948628
-0.00976397
-0.0092312
-0.00923001
-0.00939586
-0.00978634
-0.00966757
-0.00967278
-0.00954351
-0.00926907
-0.00941547
-0.00916079
-0.00905479
-0.00931287
-0.00935543
-0.00942507
-0.00896875
-0.00895178
-0.00902877
-0.0086787
-0.00909362
-0.00885867
-0.0088462
-0.00879835
-0.00846899
-0.00858581
-0.00909062
-0.00920277
-0.00887593
-0.000480663
-0.000327759
-0.000630123
-0.000404876
-0.00063546
-0.000917554
-0.000729289
-0.000242862
-0.0001849
-0.000431776
-0.000768717
-0.000785145
-0.000213779
-0.000226589
-0.00923172
-0.00921383
-0.00942875
-0.00943251
-0.00912861
-0.00931883
-0.00938184
-0.00922556
-0.00926072
-0.00917292
-0.00916158
-0.00932434
-0.00912483
-0.00903606
-0.00942985
-0.0238088
-0.0224723
-0.0214644
-0.0236944
-0.0234286
-0.0233645
-0.0237161
-0.0258303
-0.0251259
-0.0252507
-0.0250052
-0.0268963
-0.0231493
-0.0236628
-0.0245938
-0.0233648
-0.0241904
-0.0255992
0.0269083
0.0269041
0.0271533
0.0265133
0.026625
0.0265858
0.0266929
0.0265169
0.0268297
0.0268088
-0.0107923
-0.010885
-0.0109299
-0.0111399
-0.0108249
-0.0111098
-0.0107353
-0.0108146
-0.0106281
-0.0106937
-0.0107744
-0.0110146
-0.0111298
-0.010943
-0.0111484
-0.0107143
-0.0109177
-0.0108897
-0.0107699
-0.010964
-0.0110126
-0.0108773
-0.00264
-0.00266883
-0.00231124
-0.00232312
-0.00236424
-0.00130995
-0.00221564
-0.00260757
-0.00151261
-0.00159611
-0.00141938
-0.000886761
-0.00139347
-0.00162046
-0.00139773
-0.00073508
-0.000906776
-0.00223247
0.0285439
0.0295196
0.0307642
0.0294582
0.0280759
0.0305302
0.0286925
0.0296403
0.025968
0.0278719
0.0294285
0.0266202
0.0269298
0.0256791
0.0244236
0.0275391
0.0253715
0.0242333
0.0252958
0.030217
0.0284022
0.027028
0.0247482
0.0295154
0.0313349
0.032044
0.0317388
0.0365805
0.0349853
0.0325683
0.0358629
0.0284425
0.028263
0.0366591
0.0381828
0.0339388
0.0375278
0.0276938
0.0278104
0.0278602
0.0276689
0.0277834
0.0276715
0.0278535
0.0277886
0.0276317
0.0277751
0.0275731
0.0276062
0.0278399
0.0277704
0.027778
0.0278462
0.0271682
0.022971
0.022535
0.0248281
0.0259575
0.027816
0.0258527
0.0259479
0.0222494
0.0215611
0.0261406
0.0240627
0.0255777
0.0228265
0.0248558
0.022695
0.0224393
0.0236041
0.0241597
0.0231632
0.0238331
0.0248987
0.0247146
0.0240568
0.0232924
0.0249206
0.0252973
0.0247657
0.0198573
0.0194516
0.0216393
0.0230442
0.0112607
0.0102889
0.0202432
0.0201321
0.0109893
0.0132162
0.0156781
0.0157077
0.0173057
0.0148058
0.012485
0.0103584
0.0258061
0.0249788
0.0253347
0.0258489
0.0250553
0.0263664
0.0259656
0.0251724
0.0251827
0.0279939
0.0275659
0.0272395
0.0266949
0.0255955
0.0267254
0.0261635
0.027196
0.0265882
0.0259485
0.027484
0.0075346
0.00902084
0.00397329
0.000984632
0.0020517
0.00460478
0.0122869
0.00378841
0.00744872
0.00734984
0.00139195
0.00623668
0.00681759
0.00397424
0.00697737
0.0131848
0.0131368
0.0116886
0.00982315
0.00807235
0.0168429
0.0140097
0.0140929
0.0113986
0.0151914
0.015021
0.015144
0.0128408
0.0114271
0.0124862
0.0123714
0.0131425
0.0134968
0.0268519
0.0269072
0.0266907
0.0265854
0.0272863
0.0272657
0.0267877
0.0266246
0.0274488
0.0274474
0.0268535
0.027152
0.0274286
0.0273893
0.027275
-0.0113857
-0.01107
-0.011929
-0.0123336
-0.0129522
-0.011512
-0.0113418
-0.0132012
-0.0132248
0.0295483
0.028676
0.0276825
0.0276345
0.0283515
0.0277582
0.029975
0.0274326
0.0311876
0.0297565
0.0275621
0.0294008
0.0300287
0.0303855
0.0308491
0.0266723
0.0269691
0.0287348
0.0308843
0.0295583
0.0271519
0.0280165
0.00149923
0.00222444
0.00162897
-0.000345692
0.000713307
0.00167779
-0.00145824
-6.31316e-05
0.000181635
-0.00178724
-0.000734948
-0.00277423
-0.00191887
-0.00283051
-0.00332131
-0.00252795
-0.00135987
0.000197838
-0.0037096
-0.000887791
0.0256271
0.0239867
0.0286195
0.0242214
0.026066
0.0325912
0.0298897
0.026062
0.0298157
0.0252728
0.0276713
0.0334752
0.0313065
0.0320703
0.0355145
0.0288831
0.0282642
0.0265145
0.0309795
0.0249514
0.0281264
0.025908
0.029651
0.0341174
0.0350221
0.0330513
-0.00955815
-0.0106306
-0.0101542
-0.00944194
-0.0102919
-0.0110605
-0.0102032
-0.00993366
-0.0111539
-0.0101758
-0.0104047
-0.0102016
-0.00981549
-0.00946112
-0.00936877
-0.00999392
-0.00959376
-0.0102436
-0.00998378
-0.00941747
-0.00953137
-0.00970357
-0.00959713
-0.00985571
-0.009546
-0.0097735
-0.00762657
-0.00712034
-0.00775677
-0.00804565
-0.00755152
-0.00774126
-0.00742811
-0.00550037
-0.00743926
-0.0048402
-0.00729174
-0.00675602
-0.00602471
-0.006987
-0.00792863
-0.00793358
-0.00723262
-0.00692704
0.00798054
0.0074588
0.00407874
0.00598349
0.00473879
0.00280167
-0.000574497
0.00410919
0.00443922
0.00191967
-0.00281656
0.000838748
0.00235683
0.0229733
0.0237659
0.0241032
0.0227592
0.0244276
0.0242038
0.0246093
0.0237684
0.0238814
0.0229003
0.0230551
0.0249451
0.0243347
-0.0136028
-0.013574
-0.0142913
-0.0139293
-0.0138514
-0.0143647
-0.0160029
-0.0152674
-0.0169018
-0.0146832
-0.014871
-0.0143141
-0.0158992
-0.0115193
-0.00993443
-0.00981861
-0.0103282
-0.0103688
-0.011105
-0.0110031
-0.0113201
-0.00984543
-0.0100286
-0.0105543
-0.0100484
-0.00971006
-0.00991049
-0.0100001
-0.00899886
-0.00892681
-0.00905638
-0.00888044
-0.0089303
-0.00890164
-0.00882314
-0.00884468
-0.00872271
-0.00905693
-0.00887539
-0.00914376
-0.00889947
-0.00890381
-0.00875616
-0.00874862
-0.01157
-0.0110928
-0.0111584
-0.0109357
-0.0111975
-0.0108881
-0.0110266
-0.0116295
-0.011274
-0.010711
-0.0112905
-0.0114704
-0.0112622
-0.0119518
-0.00473706
-0.00463954
-0.00538763
-0.00374652
-0.00523393
-0.00573783
-0.00562902
-0.00522997
-0.00474138
-0.00513303
-0.00547793
0.0204286
0.0219756
0.0210802
0.0222366
0.0214986
0.0223564
0.0214839
0.0207378
0.0219054
0.0210189
0.0223273
0.0201917
0.0217216
0.029963
0.0328677
0.0352837
0.0436545
0.0414859
0.0298974
0.0471957
0.0463602
0.0333986
0.038998
0.0315021
0.0336572
0.0421649
0.0461018
0.0488762
0.0370026
0.0388509
0.0357006
0.0454045
0.043374
0.0415178
0.0385492
0.0309256
0.0310222
0.0308333
0.029605
0.0293959
0.0281143
0.0285647
0.0288934
0.0283313
0.0272603
0.0273781
0.0174758
0.0168214
0.0165704
0.0161582
0.0185836
0.0180821
0.0164558
0.0178338
0.0170859
0.0161983
0.015388
0.0156263
0.017297
0.0187262
0.0189062
0.0162141
0.0156752
0.0178667
0.0151154
0.0292082
0.0294941
0.0293853
0.029384
0.0301232
0.02995
0.0297388
0.0295803
0.0295746
0.0299786
0.0307289
0.0304464
0.0308767
-0.0131619
-0.00885318
-0.00616481
-0.0100314
-0.00827807
-0.00370814
-0.00391644
-0.0037739
-0.00264313
-0.00694091
-0.00465913
-0.0131546
-0.016523
-0.00715895
-0.00410717
-0.0105907
-0.0080454
-0.0166411
-0.0114599
-0.0173416
-0.0102685
-0.00931625
-0.00923514
-0.00951266
-0.00947356
-0.00906659
-0.00921293
-0.00955148
-0.00995753
-0.00940448
-0.00943708
-0.00995
-0.00968754
-0.00927406
-0.00948378
-0.00925076
-0.00934244
-0.00903529
-0.00956162
-0.0106092
-0.0117011
-0.00942622
-0.00911076
-0.00909445
-0.0107794
-0.0102209
-0.0100526
-0.00893714
-0.00998843
-0.011202
-0.0127208
-0.0107083
-0.010487
-0.00773605
-0.00635874
-0.00890597
-0.00810537
-0.00676739
-0.00938355
-0.0104509
-0.00756642
-0.00656133
-0.00786511
-0.00673804
-0.00793115
-0.0071096
-0.0027314
-0.00314616
-0.00343731
-0.00332415
-0.00354367
-0.0118913
-0.0144324
-0.0114895
-0.0137379
-0.0171887
-0.0118797
-0.0150004
-0.0190743
-0.0185265
-0.0225238
-0.0239031
-0.0204739
-0.0194513
-0.020455
-0.0153929
-0.00173582
-0.00156621
-0.000697225
-0.0016046
-0.0025513
-0.0017644
-0.00298495
-0.00159996
-0.00238434
-0.00112681
-0.00106422
-0.00193128
-0.00201016
-0.00223213
-0.000984035
-0.00193458
-0.00220501
-0.00163133
0.0117453
0.00959049
0.00492504
0.0123919
-0.00204668
-0.0128341
0.0119494
0.00166482
0.0110935
0.00491894
0.00591754
-0.0257046
-0.0194501
-0.0384228
-0.00102578
-0.00170773
-0.00424856
-0.0157521
-0.00758337
-0.0013433
-0.0182709
-0.0177402
-0.0179892
-0.0166452
-0.0168691
-0.0160045
-0.0159378
-0.0157765
-0.0168532
-0.0168863
-0.0153989
-0.015856
-0.0163246
-0.0156211
-0.0143634
-0.0127135
-0.0130954
-0.0151781
-0.0108718
-0.0115385
-0.0129486
-0.0151938
-0.0127296
-0.0120661
-0.0149588
-0.0137105
-0.00988609
-0.0106303
-0.00988712
-0.0102335
-0.0104931
-0.0106985
-0.00478875
-0.00563075
-0.00430026
-0.00702334
-0.0106073
-0.00545035
-0.0137888
-0.0128686
-0.0137452
-0.0137772
-0.00188053
-0.00194308
-0.00260232
-0.00392757
-0.00778345
-0.00892159
-0.00958856
-0.0101638
-0.00385944
-0.00705222
-0.00447553
-0.00462741
-0.00607752
-0.00771129
-0.00779464
-0.0071828
-0.00437376
-0.00427966
-0.00539834
-0.00263007
-0.00259422
-0.00580785
-0.00791718
-0.00482499
-0.00373938
-0.00255411
-0.00198154
-0.00622733
-0.00385954
-0.0042256
-0.00554317
-0.00424592
0.00982856
0.0104169
0.00746272
0.0078299
0.0105772
0.00866077
0.00812987
0.00882034
0.00927587
0.00882398
0.00776062
0.00824402
0.00846781
0.00744859