/*--------------------------------*- C++ -*----------------------------------*\
  =========                 |
  \\      /  F ield         | OpenFOAM: The Open Source CFD Toolbox
   \\    /   O peration     | Website:  https://openfoam.org
    \\  /    A nd           | Version:  10
     \\/     M anipulation  |
\*---------------------------------------------------------------------------*/
FoamFile
{
    format      ascii;
    class       volScalarField;
    location    "4";
    object      k;
}
// * * * * * * * * * * * * * * * * * * * * * * * * * * * * * * * * * * * * * //

dimensions      [0 2 -2 0 0 0 0];

internalField   nonuniform List<scalar> 
75457
(
1.45206
1.17882
0.844246
0.351587
1.35605
1.53698
1.01447
1.55336
0.344588
0.315009
0.249935
1.01039
0.861501
0.363649
0.0010823
0.000881124
0.00210783
0.00196442
0.000881241
0.00113117
0.00137022
0.00112492
0.00138375
0.000997272
0.00104831
0.00225353
0.00149462
0.00174817
0.00561371
0.000714885
0.000691058
0.0131706
0.0128
0.00151975
0.000776169
0.00245068
0.00141909
0.0166998
0.0100286
0.00485541
0.00771576
0.00414033
0.00141834
0.00715857
0.00934242
0.00425948
0.0036184
0.00594297
0.460968
0.0740768
0.227801
0.396973
1.01631
0.232347
0.0956057
0.109215
0.787665
0.760671
0.623224
1.08696
0.902525
0.516383
0.453951
0.320619
0.0568126
0.3297
0.0885176
0.376195
0.48554
0.909648
0.464303
0.989457
0.364599
0.0290099
0.454363
0.131377
0.139051
2.78406
1.82781
0.714074
3.05205
2.55734
2.23425
0.803037
1.63898
1.47529
1.02052
1.5938
2.67684
2.06696
1.86037
1.04681
1.91056
1.63526
0.792055
0.281894
0.300384
0.333981
1.56884
0.755532
0.686847
1.11506
0.113911
0.0272874
0.0401024
0.0558466
0.187168
0.040516
1.07742
0.31101
0.374951
0.776746
0.837832
0.696668
0.072353
0.834641
1.28713
0.457863
0.448711
1.54203
0.0187638
0.0719778
0.0771412
0.186331
0.445001
0.270948
0.823058
0.439978
0.844893
0.0931313
0.16955
0.901283
0.275419
0.587107
0.519387
0.866979
0.361193
0.74257
0.710211
1.30143
0.134805
0.264846
0.459414
0.151868
0.188699
0.650778
0.585937
0.523059
1.2075
0.681937
1.79085
1.08942
0.274782
0.194826
0.601611
0.960964
0.622914
1.27523
0.404011
0.858053
1.35132
0.308751
0.987092
0.0052294
0.00545377
0.00562095
0.00547524
0.00558051
0.00503604
0.00500382
0.00519408
0.00554175
0.0051116
0.00532598
0.00517775
0.00504834
0.650629
0.695068
0.843848
1.0966
0.917028
1.16655
0.668265
0.869716
1.37203
0.485594
0.661899
0.815408
1.30895
2.78249
0.684557
0.133134
0.615213
0.824853
0.472027
1.51435
0.107044
0.245421
0.186251
0.141325
0.0928554
0.576001
0.722582
0.74479
0.48009
0.524953
0.898515
1.45406
1.40358
1.40802
1.11252
1.12573
1.48337
1.64022
0.982344
0.945162
1.69421
1.05421
1.81337
1.76918
1.60502
0.909361
0.935175
1.27339
0.877593
0.943515
1.80877
0.88365
0.826852
0.955806
0.231152
0.216891
1.24067
0.655511
0.871448
0.648021
1.01405
0.310073
0.332059
0.369491
0.389053
0.909268
1.09213
0.764272
1.089
0.842653
0.612343
0.750922
1.01349
1.45788
0.961957
1.11301
0.417076
0.797772
0.489182
0.374432
0.219857
0.0898592
0.127945
0.00816204
0.0515131
0.06406
0.191101
0.158652
0.840551
1.49227
1.05204
2.00631
1.37482
1.3502
1.56439
1.2772
0.733185
0.758347
0.837919
0.680594
0.892914
0.82767
1.11613
0.791105
0.990487
0.955958
0.914383
0.861323
0.716669
0.788567
0.635283
0.223969
0.260866
0.450501
0.358193
0.421971
0.626322
0.966173
1.05417
1.28102
1.11072
0.880754
0.916298
1.10829
0.911876
0.559661
1.24614
0.244915
0.240727
0.315144
0.199036
0.330222
0.213224
0.722297
0.218933
0.182194
0.31611
0.173536
1.07112
3.05261
1.74472
0.903963
0.847677
1.26072
0.769159
1.12667
1.40743
1.32944
1.2928
0.392172
0.329988
0.35352
0.825555
0.965248
0.509686
0.472259
0.978881
1.17147
0.429907
0.446787
1.06924
0.999412
1.73604
0.967569
0.957696
1.55341
0.00645307
0.379675
1.01646
0.278722
0.390917
0.22329
0.334206
0.210582
0.256169
0.281463
0.251547
0.342377
0.966691
1.02161
1.20843
2.25433
0.749048
0.619016
1.2652
1.32672
1.37208
1.23895
0.217929
0.20601
0.279288
0.290004
0.447036
0.366112
0.764964
0.358263
0.444956
0.636158
1.50603
0.867393
0.732024
0.635872
0.796693
0.360822
0.637302
0.802944
1.33916
1.27404
1.08431
1.03269
0.760157
0.941429
0.283186
0.24534
0.665961
0.00402963
0.00416545
0.00376714
0.0037589
0.00421322
0.00432177
0.00398732
0.00429159
0.00428684
0.0051146
0.00380844
0.0037514
0.00367471
0.00374542
0.00378738
0.00381584
0.00368513
0.00371611
0.00391877
0.00393558
0.00379194
0.00357438
0.0035478
0.0035304
0.00390906
0.0038505
0.00373702
0.00354183
0.00347969
0.00371046
0.0037529
0.00387043
0.00388915
0.00368656
0.00370723
0.00380888
0.00377025
0.00373554
0.00377756
0.00387069
0.00385971
0.00373257
0.00380549
0.0037513
0.00375667
0.00371687
0.0037792
0.00387603
0.00400558
0.00373487
0.00385833
0.00386197
0.0038028
0.116956
0.0257957
0.0277096
0.0251072
0.0272947
0.0935162
0.0296534
0.0449264
0.0208689
0.118023
0.0197087
0.0249809
0.0350121
0.0367714
0.0282719
0.110863
0.67066
0.932342
0.847318
0.944393
0.307368
0.388908
0.76196
0.767837
0.127799
0.164775
1.90922
0.609868
0.568677
0.901746
0.325941
0.0206496
0.0129161
0.0186322
0.0768393
0.0759492
0.0476467
0.0184894
0.0179113
0.0177723
0.0220075
0.0138742
0.0440202
0.0740842
0.0713952
0.0786741
0.247226
0.0908733
0.0556462
0.0558535
0.00399389
0.00405662
0.00408127
0.00398988
0.00392462
0.00413423
0.00414783
0.00380676
0.00393356
0.00408729
0.00411272
0.00439754
0.00414429
0.00397115
0.00397078
0.00400536
0.00491366
0.00469983
0.00497999
0.00472554
0.00453431
0.00503439
0.00542571
0.00511396
0.00496356
0.00511848
0.00505434
0.00488351
0.00511887
0.00487447
0.00496515
0.00538823
0.00541323
0.00416244
0.00449678
0.00457612
0.0047426
0.00468644
0.00459712
0.00332377
0.00710471
0.00427788
0.00459628
0.00368054
0.00451609
0.00428582
0.00446682
0.00410246
0.00428494
0.00337722
0.0471179
0.0430189
0.0482109
0.0660031
0.00711498
0.0406611
0.0198521
0.0417901
0.0110337
0.000589242
0.0448262
0.0661163
0.0446381
0.00711222
0.0168135
0.0333516
0.0469671
0.0444357
0.00894114
0.0144031
0.0198623
0.0450687
0.000385068
0.0494531
0.00742281
0.0133431
0.0148394
0.0555202
0.0338156
0.0169015
0.0225185
0.00563186
0.00451149
0.00461183
0.00292765
0.00383219
0.00386229
0.00293554
0.00408907
0.00618345
0.00530265
0.00340106
0.00443329
0.00436429
0.00550541
0.00430357
0.00554935
0.00593565
0.00417124
0.00384844
0.00390191
0.00391724
0.00393532
0.00441955
0.00464132
0.0039623
0.00378159
0.00431849
0.00418311
0.00423181
0.00364274
0.00463167
0.0324843
0.0145029
0.038041
0.0130415
0.0409907
0.0212659
0.0375713
0.0347032
0.0243354
0.0098106
0.0128637
0.00749982
0.00518363
0.00482781
0.0100898
0.00690539
0.000634959
0.012651
8.25136e-05
0.00873762
0.0252813
0.0151678
0.0352614
0.019132
0.0188355
0.00969064
0.00565089
0.000981382
0.0384906
0.00360321
0.00529158
0.0105687
0.00578921
0.00152442
0.0392184
0.00757135
0.00198789
0.0556885
0.0398716
0.0110795
3.85237e-05
0.00210463
0.00103846
0.00196698
0.00297078
0.00238191
0.00398465
0.0549646
0.0456492
0.0467421
0.0140929
0.00933372
0.00414348
0.00419046
0.00421853
0.00106372
0.00301988
0.00598683
0.00864149
0.00182265
0.00275079
0.00328313
0.00221732
0.000891671
0.00108551
0.0084709
0.00444053
0.00520543
0.00958249
0.0043423
0.00804564
0.00406349
0.000831317
0.00100171
0.000949903
0.00154465
0.00427488
0.001096
0.000816998
0.00081625
0.000813204
0.00105289
0.000581503
0.165413
0.386893
0.408865
0.00505669
0.0478953
0.291954
0.122896
0.0214177
0.0293446
0.460766
0.304401
0.466331
0.487502
0.327503
0.384158
0.292753
0.237251
0.280029
0.280637
0.345065
0.264748
0.336418
0.500582
0.4852
0.28877
0.432607
0.454761
0.295534
0.291141
0.307444
0.253638
0.297388
0.0148725
0.0124631
0.0486861
0.0312912
0.030827
0.00779515
0.0247742
0.0164931
0.00858004
0.117875
0.155405
0.197088
0.000764915
0.160941
0.309155
0.12404
0.214204
0.00776671
0.0331368
0.0678277
0.256352
0.00531283
0.0198747
0.238928
0.157179
0.00355091
0.249699
0.0302658
0.100466
0.0556907
0.0680262
0.291198
0.100825
0.630678
0.880826
0.581921
0.47379
0.264789
0.817282
0.615879
0.654841
0.0124392
0.0219564
0.00227763
0.00264653
0.00138355
0.00171017
0.0045153
0.00710429
0.0658295
0.0116433
0.0240353
0.0321098
0.00188176
0.000457038
0.0425723
0.00154625
0.0255691
0.0238695
0.026656
0.080694
0.0732884
0.0166261
0.00577584
0.00182986
0.00976375
0.00686748
0.00288124
0.00881718
0.010567
0.0105082
0.0107309
0.00590843
0.00350919
0.0040362
0.0119384
0.0097771
0.00910174
0.0133272
0.00953126
0.00374706
0.00235291
0.00504574
0.0142268
0.0938026
9.03175e-05
0.00962078
0.0224286
0.0698675
0.00584656
0.0015421
0.0194177
0.0138664
0.0138478
0.0192186
0.0211208
0.0666965
0.0149172
0.0138605
0.0147345
0.0660222
0.00584647
0.00671912
0.025214
0.00318081
0.0302301
0.0932665
0.000634211
0.00116372
0.00436169
0.00939274
0.00154433
0.00331825
0.00823326
0.022226
0.034026
0.0223567
0.00160399
0.0014322
0.00099348
0.00546888
0.00141996
0.00935944
0.00913465
0.00660671
0.00691412
0.00769975
0.00608859
0.00534125
0.00619241
0.00609248
0.00705547
0.00661559
0.00479285
0.00734325
0.00839089
0.00376967
0.00376373
0.00390496
0.00389099
0.00395451
0.003853
0.00402289
0.00387487
0.00411968
0.00425012
0.0809307
0.0523644
0.0882469
0.125552
0.0254225
0.0199254
0.118768
0.180828
0.0407926
0.11229
0.115781
0.115621
0.133955
0.0322269
0.130267
0.116287
0.0128723
0.168115
0.195674
0.14892
0.316886
0.268544
0.164001
0.43675
0.355306
0.364115
0.370636
0.12313
0.147055
0.230076
0.178587
0.282924
0.299492
0.233568
0.127184
0.206847
0.187722
0.00234516
0.00365405
0.00365104
0.00212474
0.00487824
0.0287101
0.0332491
0.00544368
0.00369657
0.0034294
0.031623
0.0393222
0.00191163
0.0178357
0.0242035
0.0460037
0.779046
0.793813
0.975218
1.34123
0.769204
0.931675
0.772591
1.12014
1.64059
1.32548
0.788884
0.714048
1.02545
0.010514
0.0128872
0.0108619
0.00936846
0.00801413
0.0084694
0.0132542
0.00939699
0.00862768
0.0097428
0.00766992
0.00857862
0.0419112
0.11737
0.0954582
0.0542958
0.121804
0.109892
0.0500387
0.0454858
0.0437175
0.0533396
0.00179287
0.000124525
0.00275089
0.00152689
0.00129156
0.0262613
0.104769
0.00416204
0.0376934
0.0344179
0.027727
0.0279487
0.0284782
0.0318082
0.00456652
0.0093431
0.0222987
0.0236684
0.00748192
0.00802525
0.015372
0.00403179
0.011178
0.00786799
0.00716492
0.00795308
0.010222
0.00474292
0.589417
0.905496
0.421417
0.524715
0.341797
0.367614
0.38853
0.433605
0.425254
0.422288
0.438839
0.502195
0.239532
0.345021
0.244926
0.33559
0.0703224
0.162267
0.132064
0.0742888
0.0112928
0.0193503
0.0262033
0.0115947
0.0108497
0.0103209
0.100646
0.0624199
0.0186185
0.0409085
0.0287106
0.022822
1.21486
1.19272
1.06412
1.13761
1.13765
1.24144
0.308143
0.311047
0.375253
0.419356
0.365265
0.321144
0.784344
1.25462
1.12936
0.711143
0.935208
0.955659
0.358469
0.994765
0.0133358
0.0092605
0.00737203
0.00651283
0.00733571
0.00593484
0.00654815
0.00666555
0.00660325
0.0148009
0.0165711
0.00879073
0.00868984
0.00585245
0.0156257
0.0433662
0.0585468
0.0965924
0.136837
0.193459
0.165276
0.182623
0.0387277
0.265722
0.382624
0.353923
0.119831
0.400426
0.483906
0.0159088
0.0282143
0.0110105
0.0171012
0.0132398
0.0191466
0.00867564
0.0049401
0.0233519
0.00588334
0.0110315
0.00501395
0.00597206
0.00399703
0.00380146
0.0040999
0.0226995
0.0262807
0.0187578
0.0194522
0.114214
0.126808
0.0168298
0.091024
0.0561374
0.00785595
0.10603
0.146155
0.219621
0.0790334
0.0950817
0.121138
0.123248
0.21449
0.209321
0.0052077
0.0215301
0.0105507
0.00878438
0.00721506
0.0497272
0.0204575
0.0300653
0.0382778
0.0263541
0.00438042
0.00484052
0.00982052
0.00744364
0.0360663
0.0266959
0.0260983
0.0302585
0.0241514
0.0269054
0.0127173
0.0221737
0.0241182
0.0228858
0.0287378
0.0158966
0.0118979
0.0105326
0.0780661
0.00451955
0.00651151
0.0254234
0.022914
0.0125263
0.0108559
0.0260644
0.0289041
0.0133691
0.0249515
0.00906627
0.00732288
0.00736197
0.00811618
0.0308509
0.00851357
0.0197646
0.0174597
0.0132741
0.0238867
0.0194399
0.0212755
0.0481924
0.0182297
0.057685
0.0606533
0.0462027
0.0317926
0.410584
0.959715
1.38076
0.690099
1.04848
0.508624
0.636559
1.00625
1.14819
0.339605
0.743023
0.873987
1.29456
0.482969
0.860772
0.212807
0.626522
0.339617
0.241764
0.573738
0.711187
0.509823
0.232697
0.193546
0.183041
1.01773
1.01618
1.01253
1.1465
0.178284
0.200367
0.18026
0.158408
0.16875
0.40401
0.424892
0.342932
0.0206541
0.042764
0.00864752
0.0200162
0.0046636
0.00350214
0.000987033
0.0115269
0.00305637
0.00168815
0.00119272
0.00133056
0.00163367
0.00243628
0.0031418
0.00136274
0.183531
0.0954453
0.261366
0.254402
0.971378
0.740615
0.0979564
0.653118
0.77194
0.729967
0.676478
0.770573
0.150208
1.04826
1.20967
0.839106
0.995866
0.219847
0.0476459
0.813046
0.0303166
0.768227
1.01405
0.273251
0.581759
0.181807
0.900167
1.18299
0.853609
0.033759
0.231235
0.314181
1.31434
0.244175
0.575326
0.640568
1.09694
0.384873
0.57855
0.565238
1.08421
0.308712
0.477672
1.55783
0.356504
0.722295
0.381922
0.833107
1.24359
0.634274
0.338706
0.968951
1.07783
0.268481
0.129587
0.761639
0.132933
0.706149
1.22411
0.701497
0.126153
0.161718
1.12274
0.717
0.167457
0.119572
0.201658
0.12785
0.0375724
0.07571
0.0545469
0.144226
0.155885
0.018399
0.0288397
0.0315572
0.110697
0.191411
0.0570971
0.0677323
0.00737445
0.118806
0.124868
0.0835795
0.079029
0.0444776
0.0371542
0.0410004
0.0470257
0.121009
0.0689489
0.0448653
0.0679583
0.0474562
0.415553
0.698893
0.287415
0.0108582
0.0104572
0.0100656
0.0103719
0.0111663
0.00936914
0.033241
0.038892
0.0609339
0.03204
0.00162694
0.0128627
0.0140933
0.00847342
0.0274322
0.0264978
0.0782478
0.0303788
0.00659568
0.00740042
0.259323
0.306289
0.288369
0.252551
0.31811
0.244649
0.631801
0.697505
0.236539
0.251498
0.271588
0.345249
0.284093
0.345582
0.303572
0.281073
0.374952
0.252867
0.290143
0.0138813
0.00718469
0.011414
0.00925487
0.265513
0.35898
0.0869388
0.140182
0.026285
0.00749657
0.161358
0.0429123
0.0131736
0.132342
0.334754
0.107418
0.0645453
0.128421
0.0766601
0.116472
0.0144999
0.00116423
0.0615533
0.00410549
0.0251441
0.645277
0.859834
0.336687
0.385128
0.180672
0.141851
0.0423264
0.136387
0.114202
0.43195
0.100808
0.0204705
0.00287899
0.0695832
0.340816
0.268866
0.206478
0.210353
0.292997
0.286469
0.20369
0.202041
0.174525
0.268462
0.333505
0.724113
0.597932
0.259471
0.304782
0.508058
0.0235296
0.0222425
0.0247534
0.0299166
0.0303877
0.0269074
0.0503739
0.0418808
0.0448337
0.0276902
0.0314431
0.030056
0.0454814
0.0351462
0.0357985
0.0345141
0.0417254
0.0391452
0.0394238
0.0304047
0.726637
0.997905
0.601575
1.0037
0.453892
0.516427
0.18107
0.317493
1.10962
0.654316
1.121
0.930202
0.241263
0.230009
1.13554
0.831067
1.11568
0.728969
1.39817
0.485927
0.0219385
0.044593
0.0551516
0.0549571
0.037283
0.0281697
0.0250085
0.0391201
0.0490244
0.0417556
0.0425993
0.0380401
0.0658514
0.0316497
0.0840458
0.0765679
0.0784692
0.373816
0.927018
0.855709
1.65835
0.417878
0.492467
0.65948
0.717805
2.61655
0.676337
0.322818
1.39956
0.0119948
0.0104991
0.0090302
0.00413803
0.0114676
0.00835446
0.00770774
0.00525976
0.00495972
0.01362
0.00884791
0.00480888
0.057021
0.000276009
0.0196686
0.00104191
0.0309926
0.0975364
0.0011121
0.0563694
0.0806411
0.165169
0.1489
0.00618631
0.0106789
0.249419
0.176424
0.263996
0.0104708
0.0215208
0.0356149
0.00788676
0.0172531
0.020316
0.00752475
0.0714303
0.0206205
0.0306125
0.00982062
0.0537767
0.14954
0.0465739
0.0644859
0.0962993
0.361953
0.0126404
0.0135221
0.26341
0.475955
0.0364377
0.0223567
0.0958682
0.240441
0.0633954
0.235784
0.240738
0.201468
0.107787
0.15535
0.215042
0.154607
0.155515
0.0735721
0.0155817
0.1301
0.0659613
0.0618531
0.0231849
0.0137007
0.0216304
0.0257612
0.0467888
0.00194176
0.00368944
0.00258636
0.00272117
0.0644633
0.0637104
0.00750781
0.00118208
0.00462346
0.0320353
0.0667625
0.0653371
0.0113274
0.00329592
0.00520254
0.133769
0.0765882
0.511482
0.358811
0.125006
0.485357
0.328155
0.218883
0.104411
0.00215344
0.00142418
0.0159771
0.0532637
0.00460127
0.0209712
0.02136
0.00743251
0.0269006
0.0188769
0.0204808
0.0246582
0.0248915
0.0106156
0.0110069
0.0227775
0.0274586
0.0257747
0.0207297
0.0176714
0.0261291
0.0200782
0.0413512
0.0335051
0.0254257
0.0515285
0.0357037
0.222405
0.549874
0.0622313
0.22337
0.221447
0.126077
0.269756
0.246585
0.0947778
0.0977772
0.056711
0.0241536
0.0814755
0.499155
0.387468
0.2287
0.067134
0.0836386
0.381026
0.346845
0.153946
0.148452
0.145841
0.0814557
0.100757
0.156522
0.0951858
0.0820116
0.123883
0.0719768
0.0466497
0.128543
0.195163
0.125324
0.12334
0.0892729
0.0337882
0.0197772
0.0721843
0.0868084
0.0244668
0.0196954
0.0275663
0.134137
0.0255566
0.0588954
0.0719214
0.155318
0.0736664
0.0222736
0.0161083
0.33737
0.22723
0.264253
0.365998
0.337155
0.270091
0.729281
0.536882
0.43898
0.605402
0.982415
0.584587
0.279952
0.670591
0.28423
0.552386
0.654402
1.35016
1.4237
0.732354
1.26447
1.51619
0.94816
1.35936
0.941558
0.603779
0.362484
0.232148
1.22668
0.858852
0.85608
0.0689799
0.205896
1.03731
0.141943
0.783593
0.703314
0.132738
0.111176
0.0784944
0.681908
0.239012
0.240502
0.194428
0.269155
0.242584
0.253202
0.263691
0.275242
0.202696
0.273979
0.240288
0.559373
0.532095
0.51952
0.493871
0.417592
0.407788
0.553833
0.491107
0.530537
0.564198
0.527375
0.629773
0.203628
0.232446
0.262387
0.726527
0.536828
0.95118
0.644208
0.560811
0.208632
0.42704
0.747012
0.534591
1.13283
1.06339
0.429686
0.460749
0.502943
1.46443
0.828864
0.861973
0.57186
0.336465
0.882116
0.988098
0.371235
0.283739
0.193779
0.848322
0.719792
0.942924
1.21968
0.526672
0.787625
0.799975
0.199252
0.637364
0.685569
0.270349
0.266826
0.961524
0.760136
0.772905
1.1054
0.783442
0.816698
0.287577
0.262413
0.623403
0.284791
0.184134
0.162306
0.0851134
0.170288
0.0781507
0.0656316
0.0861474
0.229044
0.0408766
0.036388
0.106685
0.10337
0.0196781
0.0424929
0.0656574
0.0301583
0.0289325
0.00295645
0.00303628
0.0117722
0.00702347
0.00266402
0.0127626
0.00328085
0.00478251
0.00480896
0.00395397
0.0100009
0.0149309
0.00520109
0.0117255
0.00508642
0.0111355
0.010012
0.0007872
0.00928403
0.0410462
0.0316633
0.0069476
0.0186472
0.0137134
0.0116758
0.0116372
0.00734474
0.00260969
0.00163996
0.00768582
0.0106781
0.00146557
0.000495492
0.00649483
0.00833877
0.000808889
0.00300932
0.00170003
0.00389527
0.00334445
0.34368
0.0764299
0.0601483
0.0681405
0.0425199
0.0391765
0.569478
0.0795548
0.051672
0.933044
0.209077
0.0355288
0.0766358
0.0920312
1.4337
0.0387489
1.21506
0.121946
0.0212044
0.134803
0.666698
0.538492
0.0275193
0.0890592
0.0799652
0.01233
0.25691
0.299252
0.568764
0.0701582
0.0634704
0.369088
0.558514
0.0300536
0.0367811
0.0365118
0.0402236
0.0674566
0.114774
0.0406047
0.768403
0.611453
0.0745441
0.077903
0.189453
0.364079
0.626303
0.388069
0.462987
0.491153
0.617207
1.09052
1.4842
0.915196
1.3496
0.217603
0.522151
0.194372
0.00900256
0.00830534
0.00932365
0.00733487
0.00231615
0.00901125
0.00653476
0.00592481
0.00998922
0.0112546
0.0114021
0.0100323
0.00764781
0.00995081
0.0820142
0.0927049
0.0498865
0.0571984
0.127258
0.041156
0.052489
0.1758
0.251604
0.179641
0.27907
0.121656
0.0891633
0.142202
0.0224288
0.104596
0.206289
0.165411
0.09687
0.219729
0.0574828
1.89482
1.5974
0.0790896
0.223926
1.53231
1.62794
0.18617
0.772313
0.303184
0.531153
0.626777
1.19101
0.0294411
0.0410741
0.024902
0.0242849
0.0273402
0.0239124
0.0282345
0.022242
0.0220745
0.0174717
0.870926
0.858771
0.627219
1.06241
0.212396
0.17913
0.138311
0.26326
0.48941
0.604413
0.847524
0.873417
0.72157
0.157605
0.176934
0.0621344
0.553641
0.764271
0.169551
0.169652
0.145858
0.182048
0.136039
0.468759
0.0663383
0.250662
0.419979
0.77879
0.49613
0.0434337
0.132002
0.693413
0.543544
0.687557
0.467024
0.00652341
0.0490949
0.440735
0.438092
0.255619
0.00695537
0.00685164
0.00651275
0.00698801
0.00661861
0.00633147
0.00669917
0.00656527
0.00614264
0.00644999
0.00626804
0.0065302
0.00676173
0.0065446
0.00628634
0.00601201
0.00611626
0.00590939
0.00626934
0.541997
0.548137
0.535635
0.559497
0.634233
0.631033
0.648689
0.619491
0.54849
0.518499
0.570034
0.562931
0.662293
0.574346
0.536311
0.528629
0.585946
0.56463
0.0277384
0.0289374
0.0242725
0.0220794
0.0370018
0.0310535
0.0358727
0.0302523
0.0280257
0.0471956
0.0354746
0.0368817
0.0370087
0.0444466
0.0597968
0.0571462
0.00401648
0.00411781
0.0041101
0.00403101
0.00406267
0.00400966
0.00399118
0.00394605
0.00397172
0.00396862
0.0039726
0.00392669
0.00397991
0.00459876
0.00456312
0.0046809
0.00466742
0.00459916
0.00446523
0.00495945
0.00471639
0.00508406
0.00476394
0.00487895
0.00486779
0.00479758
0.00494761
0.00463116
0.00425905
0.00478939
0.00405172
0.00444368
0.00471074
0.00169755
0.00407636
0.00426452
0.00444054
0.00442575
0.00453147
0.00379376
0.0042981
0.00424946
0.00434198
0.00364853
0.00882803
0.00882858
0.0086096
0.00800581
0.00814415
0.00846411
0.00787885
0.00791338
0.00822582
0.0083132
0.00997936
0.00982186
0.00840162
0.00802047
0.00826696
0.00831116
0.00976446
0.00866906
0.00887522
0.00869559
0.607581
0.581268
0.543584
0.421498
0.522605
0.476731
0.617151
0.53412
0.623774
0.317353
0.351233
0.595725
0.479124
0.535377
0.619296
0.850452
0.567722
0.611166
0.768629
0.836079
0.911846
0.655846
0.766756
0.915447
0.72438
0.990002
1.13386
0.994937
0.505255
0.454845
0.510689
1.02368
0.942778
0.0116735
0.0108955
0.0109309
0.0096105
0.0124192
0.0110895
0.00963079
0.00949872
0.0102577
0.0109155
0.00879835
0.0087166
0.00858108
0.00923676
0.00974739
0.0125233
0.00810496
0.00750482
0.00891545
0.0178897
0.0231607
0.0168632
0.0180096
0.0175612
0.00809391
0.00850564
0.00748571
0.00750861
0.00816662
0.00736512
0.00728056
0.00770649
0.00702434
0.00678729
0.00684422
0.00668709
0.00703439
0.00785739
0.00733953
0.00685745
0.0069338
0.00716976
0.00780496
0.00816616
0.00695855
0.00719407
0.00273534
0.0039617
0.00250466
0.0028723
0.00400266
0.00776455
0.00325622
0.00237262
0.00206349
0.00245024
0.00205592
0.0028017
0.0029897
0.00144456
0.00216811
0.00281324
0.00274769
0.00596056
0.00314477
0.00899593
0.00410318
0.00400889
0.00384616
0.0042195
0.00478073
0.00413618
0.00437196
0.00461426
0.00425257
0.00401698
0.00386313
0.0037629
0.00380914
0.00426012
0.00417404
0.00457437
0.00443207
0.00437126
0.00409821
0.00428731
0.00405652
0.00457254
0.00377139
0.00406645
0.00428199
0.00373698
0.00932532
0.0157899
0.01453
0.0115227
0.00452113
0.00883286
0.00116335
0.00283169
0.0144972
0.00363411
0.0185343
0.010293
0.00929109
0.00206876
0.00276611
0.00830912
0.00418901
0.00403722
0.00199375
0.00316376
0.00330785
0.00402341
0.00382746
0.00874468
0.00456745
0.00541206
0.00437739
0.00435356
0.00471469
0.00497338
0.00458426
0.00326032
0.00354912
0.0143336
0.00721873
0.00958971
0.00469211
0.00511243
0.00749319
0.0079434
0.00761222
0.00534988
0.00752647
0.0051572
0.00373919
0.0037624
0.00443788
0.00374148
0.00363071
0.00452295
0.00400744
0.00369832
0.00366831
0.00378817
0.00458062
0.00370751
0.00352924
0.00547764
0.00599886
0.00559823
0.00508884
0.00559648
0.00597329
0.00641794
0.00577919
0.00555723
0.00557576
0.00550487
0.00601249
0.00569852
0.0181056
0.00979596
0.0204265
0.0151349
0.0126152
0.0124647
0.019912
0.019617
0.0173848
0.0217099
0.016362
0.0148922
0.0193742
0.00659011
0.00439199
0.00524838
0.00445656
0.00436898
0.00610812
0.00553513
0.00613046
0.00488067
0.00402132
0.00438086
0.00469768
0.00293588
0.00267967
0.00439968
0.00737119
0.00464199
0.00685028
0.00685857
0.0148385
0.00571548
0.00420215
0.0223943
0.0208785
0.0481383
0.0117667
0.020922
0.00704663
0.00775709
0.0195227
0.0103026
0.00426914
0.0125031
0.00316175
0.00904228
0.00431276
0.0147132
0.00301312
0.00222966
0.00389372
0.0140334
0.00270152
0.0007801
0.0032839
0.0140219
0.18166
0.204452
0.108176
0.0658404
0.0340111
0.109455
0.131964
0.148831
0.114946
0.11649
0.218223
0.00398281
0.00386778
0.00411481
0.00429118
0.00442253
0.00406831
0.00426897
0.00411554
0.00430181
0.00430803
0.00408068
0.00409812
0.00418078
0.0055469
0.0065761
0.00426641
0.0133606
0.00671037
0.00616119
0.00648059
0.0075191
0.00650613
0.00638183
0.00454838
0.00550414
0.00612752
0.00515691
0.00900654
0.00424311
0.00489498
0.00539889
0.00716223
0.00470555
0.00509517
0.00473441
0.00357996
0.00383635
0.0030835
0.00222849
0.00469913
0.00336056
0.00344414
0.00456572
0.00347561
0.00376838
0.00396201
0.00379829
0.0038699
0.00354046
0.00335476
0.00379307
0.00385493
0.00396275
0.00392991
0.00424825
0.00418213
0.00403429
0.00394836
0.00396337
0.0040117
0.00401415
0.00394782
0.0045399
0.00412309
0.00411631
0.0158831
0.0146069
0.0185487
0.0129936
0.0132513
0.0171448
0.0186973
0.015165
0.0173633
0.0161053
0.0132947
0.0174589
0.0142804
0.00202064
0.00397028
0.00382142
0.00285182
0.00409705
0.00345621
0.00335824
0.00371245
0.00369081
0.00356618
0.00355628
0.0042899
0.00573285
0.00348428
0.00376792
0.00302172
0.00454688
0.00236028
0.00605552
0.00632419
0.00340605
0.00394984
0.00567931
0.00386697
0.00430417
0.008628
0.00691525
0.00644775
0.0103591
0.0149272
0.00504362
0.0119098
0.0173692
0.0050144
0.00411099
0.00928292
0.0143887
0.0094684
0.0156502
0.0798833
0.157404
0.0889468
0.10117
0.0999125
0.128152
0.0249107
0.0321195
0.1114
0.0273162
0.0592176
0.179434
0.0711664
0.0521817
0.0533304
0.0366384
0.0205576
0.0776331
0.0888725
0.0262172
0.10277
0.0548048
0.030159
0.0212929
0.0733757
0.0908368
0.0960319
0.00386
0.00447251
0.0049962
0.00168812
0.00101612
0.299639
0.0510439
0.248253
0.153496
0.408059
0.10357
0.214643
0.705903
0.786136
0.357394
1.14694
1.21585
0.190499
0.723068
0.165195
0.212489
0.177826
0.176794
0.168896
0.124101
0.029399
0.0523417
0.174753
0.125742
0.0272042
0.0218816
0.142646
0.170982
0.0360183
0.0249848
0.0570609
0.0610354
0.0611191
0.0276254
0.0313623
0.0733598
0.0660965
0.106412
0.142815
0.110734
0.131503
0.0482446
0.0369497
0.17744
0.241989
0.233936
0.227265
0.153225
0.0245346
0.070778
0.23175
0.211053
0.0753627
0.161824
0.24893
0.0634231
0.0657457
0.101147
0.0553564
0.0275389
0.156374
0.325555
0.316172
0.0907688
0.201269
0.271637
0.195426
0.0249176
0.00598385
0.0186798
0.00938336
0.00365129
0.00280672
0.0196963
0.000636057
0.0215613
0.0281559
0.0324542
0.0118985
0.00350591
0.00252945
0.00334929
0.00529902
0.0114937
0.0110115
0.192091
0.427139
0.406152
0.574991
0.664045
0.446319
0.80342
0.0738071
0.78475
0.501965
0.253039
0.249992
0.244697
0.334193
0.384113
0.0925461
0.619458
0.509942
0.127178
0.359061
0.0311582
0.10132
0.00304947
0.00308308
0.00267449
0.0025606
0.00284141
0.00282657
0.00291943
0.00268652
0.00274382
0.00308287
0.00288418
0.00273722
0.00255274
0.00260697
0.00256319
0.00273404
0.00263857
0.00280309
0.00264114
0.00259783
0.00872739
0.0265362
0.080253
0.00384347
0.00284714
0.00282353
0.0876063
0.00200427
0.0194835
0.00332491
0.00338556
0.0261494
0.00338345
0.00346692
0.0253726
0.164112
0.774312
0.371825
0.718426
0.744308
0.68208
0.746847
0.51226
0.00687512
0.0048896
0.0235373
0.0168763
0.0165836
0.0084245
0.00992329
0.00474772
0.0194223
0.0134307
0.00373311
0.0130509
0.0704308
0.107775
0.925889
0.342394
0.077151
0.149438
0.862599
0.648125
0.843268
0.900226
1.27242
0.650459
1.04123
1.65795
0.470997
0.19316
0.197416
0.261869
0.00159835
0.00440092
0.00422726
0.00529873
0.0051617
0.00156999
0.00202646
0.00314928
0.0036376
0.00418289
0.00658854
0.00250431
0.00259175
0.000554697
0.00238377
0.00558963
0.00616653
0.00266583
0.00254403
0.00321651
0.0113182
0.0159608
0.00486226
0.0162899
0.00324268
0.00368329
0.00509612
0.0193345
0.00903873
0.00444175
0.0353955
0.00533685
0.00252052
0.0100285
0.0142237
0.00424255
0.00311871
0.0173383
0.00226671
0.00365103
0.0145465
0.0131858
0.0151033
0.0177384
0.0139142
0.0167816
0.0146723
0.0130789
0.0156645
0.0174709
0.0172488
0.0157942
0.0155463
0.0144157
0.0157442
0.0140263
0.274903
0.481719
0.275417
0.211939
0.648544
0.683154
0.409284
0.298625
0.268367
0.30548
0.379767
0.339623
0.539185
0.273514
0.30496
0.474851
0.445357
0.365128
0.0235304
0.0104662
0.00855001
0.00323465
0.0061408
0.00362321
0.00255452
0.00412299
0.0354231
0.0250042
0.00756236
0.00349447
0.00311768
0.00688155
0.0302341
0.0123328
0.0079145
0.0038017
0.00282482
0.00281964
0.00398526
0.00300903
0.00301707
0.00314922
0.00245298
0.00219497
0.0116388
0.00880421
0.0159328
0.000750569
0.00265239
0.00235884
0.0026123
0.00270547
0.00634858
0.0125116
0.466391
0.456233
0.371504
0.22492
0.0623736
0.246419
0.0471239
0.202105
0.227751
0.334764
0.0623068
0.0581643
0.126807
0.164661
0.0755885
0.0970756
0.0262213
0.0212967
0.0202136
0.032069
0.0206185
0.0341456
0.00734491
0.032077
0.00755632
0.00549886
0.00650094
0.005645
0.135526
0.0731499
0.0163319
0.0993152
0.188332
0.0149264
0.00928141
0.0740178
0.0914804
0.0651722
0.00861316
0.00843194
0.0284846
0.0280579
0.0227193
0.00911945
0.0146056
0.0272824
0.0159024
0.00709644
0.01199
0.0134008
0.014435
0.0159602
0.022535
0.0155549
0.00838083
0.00835499
0.00815591
0.0069315
0.0132225
0.0160104
0.0102209
0.0156697
0.0124396
0.0143357
0.019568
0.0073567
0.00217183
0.0287335
0.0198545
0.00816966
0.0079932
0.0174725
0.000823931
0.000943941
0.000453483
0.000864254
0.00057616
0.00138726
0.000540153
0.000671263
0.00219066
0.0110418
0.00455521
0.00614056
0.00601549
0.0114835
0.00836937
0.0119629
0.00740461
0.00789888
0.00266642
0.00423059
0.000810296
0.00834843
0.00781489
0.00498683
0.00466188
0.00498181
0.00500816
0.00459187
0.00476078
0.00506331
0.00486316
0.00486194
0.00482521
0.00495966
0.00472595
0.00458013
0.0047967
0.012068
0.0124033
0.0167168
0.0162463
0.0171386
0.0172795
0.0119727
0.0106781
0.0142576
0.0151532
0.0123702
0.0153424
0.0132146
0.0138163
0.0134493
0.0137387
0.0129778
0.0166793
0.0362155
0.0394551
0.0314685
0.0348611
0.0129359
0.0250285
0.0217706
0.0207476
0.0250237
0.0205246
0.0203949
0.373
0.443957
0.0403192
0.0523237
0.140464
0.391752
0.481727
0.0236513
0.0503132
0.0280322
0.0644234
0.134779
0.0328181
0.053311
0.0258712
0.0076839
0.0381475
0.101481
0.081538
0.0454576
0.066189
0.0785726
0.0535622
0.0480799
0.0812999
0.0620727
0.0659398
0.0472303
0.0753583
0.0614942
0.0553619
0.053498
0.0483007
0.0513646
0.0537032
0.0541521
0.0583849
0.0633058
0.0457826
0.00316133
0.00236603
0.00225868
0.00207069
0.000181623
0.00589732
0.0121371
0.0028782
0.00245667
0.00200729
0.0139686
0.000938513
0.00287617
0.002663
0.0021468
0.0693621
0.113916
0.0492724
0.0352458
0.134753
0.121867
0.11708
0.091291
0.144778
0.027812
0.0786208
0.0376997
0.10834