/*--------------------------------*- C++ -*----------------------------------*\
  =========                 |
  \\      /  F ield         | OpenFOAM: The Open Source CFD Toolbox
   \\    /   O peration     | Website:  https://openfoam.org
    \\  /    A nd           | Version:  10
     \\/     M anipulation  |
\*---------------------------------------------------------------------------*/
FoamFile
{
    format      ascii;
    class       volScalarField;
    location    "4";
    object      nut;
}
// * * * * * * * * * * * * * * * * * * * * * * * * * * * * * * * * * * * * * //

dimensions      [0 2 -1 0 0 0 0];

internalField   nonuniform List<scalar> 
75457
(
0.0515214
0.0419318
0.0361622
0.0167283
0.0546625
0.0233251
0.0438489
0.0199485
0.0202199
0.0187972
0.015856
0.0343479
0.0427016
0.0182687
0.000449078
0.000366469
0.000887094
0.000802899
0.000367427
0.000480689
0.000570098
0.000471639
0.000575105
0.000414831
0.000438819
0.000915039
0.000609981
0.000705569
0.00221381
0.000289271
0.000284035
0.00508406
0.00488278
0.000628131
0.000321735
0.00101128
0.000588951
0.00618311
0.00380814
0.00200985
0.0031815
0.00171695
0.000591166
0.00271536
0.00338171
0.0017326
0.001497
0.00229065
0.0840413
0.0238781
0.0526699
0.0785988
0.0812684
0.0554723
0.0289949
0.0318168
0.110637
0.0950003
0.0872867
0.0132203
0.0821276
0.0871733
0.0519755
0.0445677
0.0080328
0.0412088
0.0132509
0.0453608
0.0571596
0.0116158
0.0566082
0.0126618
0.0469798
0.00374512
0.0562926
0.0183736
0.0182987
0.188977
0.145111
0.0624962
0.165973
0.169988
0.180301
0.0796398
0.151186
0.139081
0.0856265
0.128104
0.16868
0.122387
0.157222
0.0957156
0.130918
0.154647
0.148771
0.0913387
0.088594
0.0926539
0.0131413
0.116563
0.0860794
0.106196
0.0051454
0.00136372
0.00101378
0.00135743
0.00898629
0.00216691
0.0101651
0.0427185
0.0669324
0.00808217
0.00790609
0.0519483
0.0136103
0.084736
0.0116746
0.0496729
0.0521936
0.0136985
0.00310927
0.0106562
0.011517
0.0290079
0.0590366
0.0357255
0.00737917
0.0681982
0.0740516
0.0129379
0.0247304
0.130377
0.0420373
0.0966892
0.155908
0.056638
0.0513199
0.136037
0.124155
0.00990514
0.0305887
0.0491587
0.069215
0.0350115
0.0414277
0.108997
0.0825976
0.0636103
0.0676321
0.136487
0.0111552
0.117777
0.0544998
0.0477238
0.0672113
0.0709915
0.146024
0.00796057
0.0770178
0.12375
0.0084137
0.0580795
0.119834
0.000865652
0.000871298
0.000860702
0.000879949
0.000872308
0.000870017
0.00086462
0.000855506
0.000880675
0.000849258
0.00086726
0.000869322
0.000867893
0.0764542
0.0897207
0.113426
0.0947511
0.210524
0.00727424
0.17701
0.0734808
0.00849994
0.0968983
0.188401
0.086926
0.0738133
0.0174583
0.0970624
0.0182398
0.0766744
0.0634036
0.0532426
0.0139285
0.0267385
0.0533154
0.0457878
0.0320962
0.0237078
0.0770356
0.0830749
0.00803547
0.0764791
0.0732828
0.0694445
0.126979
0.114337
0.113861
0.10333
0.102467
0.0124025
0.0128953
0.108006
0.0889647
0.0140494
0.0997866
0.0142642
0.0149015
0.0619671
0.10657
0.0771669
0.00973877
0.0831779
0.083274
0.0138199
0.0672179
0.105516
0.00728575
0.045888
0.04399
0.0630772
0.0786859
0.0906775
0.0961395
0.114727
0.076217
0.0761298
0.0799071
0.0796459
0.107364
0.00860716
0.114282
0.0687267
0.0856876
0.0962144
0.11044
0.0969022
0.0116335
0.0982685
0.00883553
0.059463
0.00782314
0.0827194
0.00366164
0.041075
0.011008
0.0144217
0.00245117
0.0148303
0.0170175
0.0440966
0.0314504
0.0858837
0.0167796
0.0816705
0.0154215
0.0154068
0.0686635
0.0117486
0.0770422
0.124903
0.115399
0.0843314
0.11109
0.0866289
0.0740795
0.0105625
0.0802907
0.107484
0.0089818
0.0955596
0.00813884
0.0991151
0.00741161
0.0963908
0.0578886
0.0666384
0.0857175
0.0745549
0.0805671
0.127048
0.00863826
0.0684139
0.0114408
0.0682418
0.107215
0.109801
0.00989478
0.116333
0.0548547
0.0121499
0.0514425
0.0517294
0.100456
0.00203694
0.0817508
0.0542808
0.00731934
0.0817165
0.0472317
0.0497343
0.053842
0.06489
0.100155
0.074494
0.0516071
0.0543103
0.0118968
0.0478913
0.0590821
0.0647884
0.0692124
0.0240728
0.093179
0.0782038
0.0741502
0.111192
0.0792017
0.0495825
0.0520825
0.0936615
0.00801038
0.0808543
0.0819493
0.128843
0.131019
0.0120277
0.10329
0.120283
0.0107827
0.00115396
0.0413139
0.0400965
0.0429466
0.0233498
0.0162019
0.0180549
0.0311444
0.0390187
0.0309687
0.0395481
0.0837713
0.105888
0.137578
0.125487
0.021169
0.0959119
0.123916
0.0167681
0.0125499
0.0182675
0.0117996
0.0602727
0.0590558
0.0622106
0.0672534
0.0717224
0.0680994
0.0832731
0.0714977
0.075222
0.0850293
0.0143024
0.0742559
0.0762786
0.0953552
0.00751409
0.0508145
0.0535116
0.0803715
0.0123438
0.012947
0.0633633
0.258155
0.0942885
0.115332
0.0610517
0.0596047
0.0869957
0.000890382
0.000909552
0.000851749
0.000851677
0.000918549
0.0009381
0.000883574
0.000936666
0.000931105
0.00110813
0.000841456
0.000846346
0.000812622
0.000834359
0.000851224
0.000836397
0.000829538
0.000841507
0.000897033
0.000900683
0.000853245
0.000816545
0.000795509
0.000803761
0.000869501
0.000860119
0.000856069
0.000800121
0.000788913
0.000831642
0.000843528
0.00090801
0.000899796
0.00085129
0.000848481
0.00088173
0.000866981
0.000853001
0.000852736
0.000907096
0.000896943
0.000874886
0.000892974
0.00086788
0.00086016
0.000857996
0.000856324
0.000891302
0.000915864
0.000860543
0.000881848
0.000891544
0.00087172
0.0357972
0.009826
0.0104634
0.0095742
0.0103735
0.0307636
0.0114113
0.0177705
0.00827202
0.0352295
0.00791652
0.00987173
0.0140263
0.0143426
0.0116557
0.035868
0.0226282
0.0283519
0.0461546
0.0313161
0.024501
0.0296657
0.0430233
0.0253006
0.0112537
0.0136844
0.0391793
0.0198007
0.0219404
0.0266909
0.0246654
0.00232622
0.00363589
0.0053377
0.0204115
0.0194157
0.0129135
0.00512782
0.00506083
0.00508958
0.00613906
0.00383828
0.0120426
0.0192521
0.0187007
0.0219625
0.0526741
0.0243939
0.0153007
0.0153563
0.00087668
0.000879433
0.000891254
0.000885977
0.000876377
0.00091542
0.000915584
0.000837803
0.000865843
0.00090306
0.000902549
0.000950104
0.000911513
0.000866351
0.000861816
0.000865919
0.00084284
0.000839896
0.000841726
0.000845085
0.000845465
0.00083695
0.000853087
0.000847275
0.000846489
0.000848172
0.000860321
0.000847848
0.000851032
0.000849357
0.000854714
0.0008628
0.000854073
0.000885135
0.000925185
0.000980335
0.00100927
0.00101418
0.00100177
0.00071129
0.00148032
0.000929971
0.00102208
0.000780586
0.000992013
0.000954039
0.000991748
0.000898088
0.00096502
0.000732179
0.00964128
0.0115112
0.0108979
0.0117579
0.00231729
0.00781164
0.00589421
0.00803016
0.00351537
0.0001815
0.0110663
0.011594
0.00837996
0.00165082
0.00293626
0.011283
0.00804516
0.00744789
0.00364998
0.00598471
0.00816016
0.0169895
0.000156883
0.0185555
0.0030381
0.00549582
0.00610226
0.0205739
0.0130893
0.00692494
0.00902215
0.00229983
0.00177188
0.00181842
0.00112968
0.00151573
0.00145764
0.00112664
0.00157854
0.00239984
0.002085
0.001319
0.0017039
0.00166998
0.00215497
0.00173399
0.00221813
0.00228087
0.0016588
0.00151475
0.0009163
0.000917148
0.000916606
0.000979963
0.00101676
0.000924016
0.000882358
0.000960318
0.000945673
0.00094563
0.000854282
0.0010195
0.0101227
0.00511775
0.0112449
0.00469941
0.0121007
0.00701333
0.0112775
0.010613
0.00755166
0.00371982
0.00502996
0.0028834
0.00197549
0.00184556
0.00387561
0.00262558
0.000262239
0.00438655
3.45477e-05
0.00319578
0.00682632
0.00435462
0.0087422
0.00566716
0.00584229
0.00346911
0.00214934
0.000395791
0.0102874
0.00140288
0.00200389
0.00373275
0.00159253
0.00042154
0.0107652
0.00205814
0.000524071
0.0150757
0.0109454
0.00308504
1.07647e-05
0.000574204
0.000281186
0.000535365
0.000806189
0.000634774
0.00106088
0.0149689
0.0125467
0.0125951
0.00393936
0.00376956
0.00168228
0.00172501
0.00164497
0.000431293
0.00120415
0.00236421
0.00353872
0.000741452
0.00113126
0.0012966
0.00088448
0.000361689
0.000439009
0.00327261
0.00175228
0.00207332
0.0036944
0.00173063
0.00315829
0.00165214
0.000341175
0.000406295
0.000393688
0.000635776
0.00169302
0.00044782
0.000336149
0.000333331
0.000339077
0.00043688
0.000238788
0.0329215
0.0620268
0.0641359
0.0012769
0.0121231
0.0538385
0.0261134
0.00641545
0.00803421
0.0664842
0.0544834
0.0812588
0.0841972
0.0550791
0.0633839
0.0489271
0.0349916
0.0482595
0.0379579
0.0616698
0.0465974
0.0534907
0.055426
0.0539514
0.0446099
0.0493209
0.049806
0.038514
0.0491307
0.0436091
0.0379505
0.0449156
0.00602012
0.00498643
0.0184426
0.0124018
0.0121873
0.00322518
0.00983022
0.00684301
0.00368296
0.0382824
0.0457492
0.0511199
0.000339295
0.0480477
0.0669008
0.0403989
0.054699
0.00332328
0.0100288
0.014028
0.0205175
0.00152681
0.00535285
0.0248837
0.0141995
0.000885831
0.0366238
0.00512049
0.024513
0.0160955
0.0179685
0.0517913
0.0168593
0.0855723
0.104201
0.0707
0.0538269
0.0414071
0.0945509
0.0802356
0.0761817
0.00518149
0.00904394
0.000991796
0.00115309
0.000579318
0.000726168
0.0018914
0.00297466
0.024932
0.00496086
0.0098569
0.0129194
0.000830417
0.000193465
0.0166222
0.000659619
0.0104752
0.00981885
0.0110689
0.0307674
0.0275096
0.00694791
0.00222447
0.000741318
0.003661
0.00277682
0.00117691
0.00330117
0.00390581
0.00432338
0.00418454
0.00227111
0.00139124
0.00159917
0.00439148
0.00399143
0.0036221
0.00476387
0.00365797
0.00151381
0.000984841
0.00209631
0.00561806
0.0294781
3.88914e-05
0.00396682
0.0085907
0.0235953
0.00246486
0.000663287
0.00780682
0.0057251
0.00570818
0.00756132
0.00827207
0.0228939
0.0061257
0.0057207
0.00601496
0.0225909
0.00249885
0.00281029
0.010039
0.00136298
0.00750226
0.0172385
0.00026097
0.000459206
0.001567
0.00300746
0.000594162
0.0012278
0.00274316
0.00637047
0.00851567
0.00613109
0.000601886
0.000572827
0.000403137
0.00195689
0.000560076
0.0035413
0.00346108
0.00265068
0.00273111
0.00305311
0.00244883
0.00219546
0.0024577
0.00242663
0.00275938
0.0026232
0.00195559
0.00284319
0.00318488
0.000847893
0.000795289
0.000807367
0.00085699
0.000841524
0.000813066
0.000830024
0.000840932
0.000876351
0.000883143
0.0277418
0.0202881
0.0309013
0.0394871
0.0102166
0.00804674
0.037449
0.0484178
0.0159751
0.0353981
0.0375453
0.0375201
0.0395481
0.0124116
0.0396471
0.0376156
0.00517325
0.0301925
0.0332554
0.0259506
0.0528483
0.0473857
0.0305704
0.0743113
0.0632414
0.0662827
0.0663095
0.0216462
0.0263467
0.0391806
0.0317134
0.049267
0.0552465
0.0420474
0.0238076
0.0369836
0.0345593
0.000492363
0.000756691
0.000769598
0.000445337
0.000972303
0.00558011
0.0059433
0.00110756
0.000752675
0.000715896
0.00577777
0.00711919
0.00040293
0.00367401
0.00475789
0.00792224
0.0673063
0.0766645
0.0954316
0.121219
0.0629733
0.0850855
0.0687354
0.089717
0.130959
0.114123
0.0716071
0.0655065
0.0858819
0.0039232
0.00462436
0.00408806
0.00365717
0.00315225
0.00328301
0.0047908
0.0035135
0.00331931
0.00376733
0.00307263
0.00327423
0.0109063
0.0275887
0.0238961
0.0139708
0.0290712
0.0267824
0.0132879
0.0121951
0.0118362
0.0141666
0.000473168
3.31337e-05
0.000715102
0.000399712
0.000330155
0.00682785
0.0260236
0.00108245
0.00979815
0.0106533
0.00868929
0.00838487
0.0083321
0.00894865
0.00177471
0.00342394
0.00686064
0.00762925
0.00292956
0.00314271
0.00526573
0.00161965
0.00401393
0.00303056
0.0028361
0.00314477
0.00373372
0.00185397
0.0780721
0.0902372
0.0603087
0.0725986
0.0553497
0.054694
0.0693755
0.0803083
0.0734959
0.0753376
0.0762318
0.0892667
0.0425088
0.0640021
0.0423233
0.0623145
0.0156318
0.0329849
0.028453
0.0168505
0.00256635
0.00431287
0.00592681
0.0026389
0.0024535
0.00228719
0.0219009
0.0139108
0.00407711
0.00893868
0.00596819
0.00490785
0.0193089
0.105695
0.0944023
0.0998777
0.0179125
0.105871
0.0573834
0.0558871
0.063859
0.0681736
0.0632006
0.0553485
0.105235
0.127144
0.105778
0.0864579
0.092422
0.0921241
0.0594714
0.118076
0.00199725
0.00121359
0.00100357
0.000920575
0.00107309
0.000829507
0.0008468
0.000903611
0.000956801
0.00202398
0.00224476
0.00124559
0.00115976
0.000840236
0.00219049
0.00868419
0.0111548
0.0186035
0.026375
0.0333868
0.0271602
0.0272364
0.00680774
0.0381835
0.0517595
0.0496799
0.0192016
0.050285
0.0570105
0.00449725
0.00714036
0.00318427
0.00479968
0.00390987
0.00534579
0.00266185
0.00160955
0.00614303
0.00176287
0.00318124
0.00163429
0.0018623
0.00130181
0.00121346
0.00134477
0.00925393
0.0105896
0.00772387
0.00794665
0.0347869
0.0376898
0.00726292
0.032149
0.0205096
0.00335213
0.0340636
0.0457276
0.0574468
0.0268771
0.0314868
0.0354392
0.0389643
0.0543608
0.0520616
0.00202493
0.00674215
0.00350464
0.00314986
0.00274355
0.0138144
0.00667216
0.00871569
0.0109245
0.00781785
0.00173797
0.00188989
0.00357636
0.00291519
0.0102471
0.00783902
0.0104016
0.0103691
0.00905856
0.00964167
0.00542674
0.00894233
0.00830895
0.00878125
0.0114677
0.00192381
0.00165413
0.00146159
0.00960068
0.000530563
0.000862451
0.00344265
0.00302326
0.00165983
0.00145241
0.00342186
0.00387975
0.00162609
0.0031229
0.00112241
0.00087889
0.000915229
0.00103512
0.0041668
0.00108291
0.00669521
0.00604343
0.0046918
0.00864598
0.00686486
0.00709921
0.0175713
0.00646147
0.0194723
0.0216241
0.0167599
0.0114752
0.090935
0.147115
0.0124251
0.139024
0.061357
0.0866763
0.0632351
0.00886569
0.0102464
0.0729229
0.0728138
0.068471
0.0114637
0.0796104
0.0840729
0.0577909
0.0816792
0.0710116
0.0585979
0.07734
0.0805576
0.0742525
0.0571144
0.0558996
0.0544355
0.0904146
0.0134604
0.0821719
0.0154099
0.0535285
0.0568979
0.0538917
0.0493231
0.0508963
0.0870813
0.0811898
0.080263
0.00851935
0.0169412
0.00366393
0.0082804
0.00199046
0.00148639
0.000417064
0.0048871
0.00129451
0.000715249
0.000486575
0.000552914
0.000680162
0.0010202
0.00133291
0.000573565
0.0382183
0.0264437
0.0460137
0.0515608
0.0768714
0.0707048
0.029664
0.0852033
0.0774651
0.104274
0.0872885
0.113797
0.0433756
0.0957133
0.0153266
0.093342
0.0126332
0.0529355
0.0187922
0.0901427
0.011551
0.0997836
0.0674597
0.061853
0.0790288
0.048277
0.100563
0.012724
0.0936715
0.0129262
0.0568476
0.0663202
0.014063
0.0581364
0.0955595
0.0877156
0.0951996
0.0926103
0.0718244
0.152158
0.00995988
0.0526841
0.0672066
0.0142529
0.0663907
0.0851995
0.0490802
0.111639
0.0142773
0.120681
0.0544945
0.0918557
0.0121414
0.0648227
0.0355632
0.092447
0.0376236
0.0855071
0.0138115
0.0866651
0.0393853
0.0454024
0.0794363
0.0816455
0.047721
0.0378963
0.0525132
0.0399111
0.0150702
0.0273605
0.0206706
0.0433172
0.0452425
0.00774397
0.0117451
0.0128354
0.0352353
0.0508998
0.0214395
0.0238994
0.00312979
0.0385358
0.0398494
0.0192878
0.0215004
0.0108958
0.00901529
0.0105097
0.0119309
0.0259109
0.0246957
0.0123827
0.015972
0.0119769
0.069907
0.0829936
0.0543588
0.000912797
0.000903085
0.000916171
0.000963377
0.000909493
0.000882061
0.00326186
0.00360781
0.00548314
0.00289812
0.000131238
0.000995714
0.00138068
0.000811922
0.00253627
0.00236114
0.00717044
0.00245227
0.000567731
0.000684899
0.0131778
0.0227628
0.0244054
0.0203607
0.00961652
0.00917123
0.0150304
0.00900999
0.0268647
0.0346976
0.0199553
0.0100162
0.0094374
0.00524182
0.0155889
0.0139904
0.021452
0.017839
0.0186975
0.0027326
0.00161533
0.0025669
0.00230284
0.0269926
0.0253196
0.00935644
0.0124372
0.00578447
0.00172223
0.0146356
0.00575466
0.00282293
0.0238071
0.0300114
0.0144003
0.0115441
0.0124018
0.0133542
0.0120183
0.00610264
0.000491049
0.0249198
0.00173278
0.0102561
0.0780191
0.0795887
0.0713084
0.0800062
0.0673233
0.0450243
0.0181606
0.0450982
0.0401709
0.0711167
0.0382605
0.00866136
0.00123806
0.0251268
0.0486152
0.038899
0.0434488
0.0394726
0.0324768
0.0500927
0.0300123
0.0412903
0.0379416
0.0551223
0.0596717
0.0699754
0.0690567
0.0510936
0.0515562
0.0655478
0.00096115
0.000974117
0.0010293
0.00114861
0.00099822
0.000979174
0.00166054
0.000964421
0.00109374
0.000757656
0.000973324
0.000948212
0.00101742
0.00104136
0.00110085
0.00110481
0.0010726
0.00101003
0.000998621
0.0010356
0.0906456
0.104193
0.0769105
0.0995863
0.0729892
0.0778609
0.0429901
0.0609158
0.0935898
0.0807066
0.0108108
0.100754
0.0518541
0.0520627
0.0813385
0.0758304
0.0107859
0.0836911
0.0133662
0.0743542
0.000715974
0.00118841
0.00132981
0.000983372
0.000885742
0.000944367
0.00101588
0.000990202
0.00104065
0.000994196
0.000939744
0.00106834
0.00105234
0.000771144
0.00106379
0.000945397
0.00141959
0.13304
0.0818528
0.128776
0.0120014
0.0756248
0.0931533
0.0830525
0.0992037
0.0187682
0.0957332
0.18244
0.0686891
0.000989296
0.000905556
0.000593886
0.000284486
0.000873291
0.000720092
0.000704746
0.000492325
0.000353838
0.000899935
0.000702552
0.000371904
0.00444016
1.94539e-05
0.00169909
8.08099e-05
0.0024182
0.00812039
7.20452e-05
0.00502514
0.00711857
0.0284662
0.0261578
0.00112742
0.00189862
0.0394782
0.0300706
0.041873
0.00182581
0.00390442
0.00632261
0.00141168
0.0031544
0.00375504
0.00140333
0.0122563
0.00363137
0.00547052
0.00178718
0.0111443
0.0284208
0.00967119
0.0129447
0.0189174
0.0573032
0.0026453
0.00272823
0.0433886
0.0684195
0.0070957
0.00460649
0.0188898
0.040734
0.0122922
0.0236707
0.0291916
0.0312938
0.0177321
0.0142949
0.0328199
0.0277473
0.0245219
0.0118132
0.00245369
0.0229656
0.0105699
0.00994246
0.00370391
0.00454654
0.00690572
0.00849421
0.0146187
0.000667084
0.00129114
0.000847558
0.000901453
0.0191806
0.0179417
0.00251814
0.000389717
0.00149089
0.00997102
0.0195858
0.0199022
0.00159033
0.00045935
0.000711593
0.0187927
0.0108114
0.0630523
0.0514763
0.0176866
0.0572686
0.0450999
0.0332009
0.0162626
0.00030228
0.000181306
0.0020777
0.00737547
0.000633701
0.000960226
0.000971084
0.000442772
0.00148486
0.000961321
0.000933587
0.00097865
0.000975844
0.000569523
0.000556604
0.000891033
0.000911986
0.00103638
0.000778287
0.00074374
0.00103892
0.000832116
0.00594072
0.00594155
0.00494935
0.00743147
0.0070639
0.0191153
0.0299593
0.0120102
0.0205417
0.0208105
0.0171565
0.0258384
0.0219372
0.0172429
0.0137817
0.00576737
0.000580874
0.0125703
0.0603337
0.0570701
0.0405863
0.0144782
0.0187233
0.0554626
0.0528738
0.029183
0.0287361
0.0295939
0.0169116
0.0210839
0.0312653
0.0204663
0.0182588
0.0254901
0.0156717
0.0100586
0.0264395
0.0370729
0.0267416
0.0263252
0.023599
0.0107697
0.00633826
0.0192553
0.0249283
0.00834979
0.00699531
0.00951027
0.0343602
0.00793006
0.0164079
0.0213702
0.0388369
0.020554
0.00726342
0.0052205
0.0691444
0.0574145
0.0613611
0.0709903
0.0786683
0.0702864
0.0914983
0.105446
0.077066
0.108551
0.0125898
0.0773463
0.0628141
0.0797011
0.0741366
0.0859368
0.0784844
0.103485
0.01853
0.0781005
0.0927453
0.019997
0.0948971
0.0188368
0.0894079
0.0821279
0.0667197
0.0558242
0.0166617
0.093764
0.0835864
0.0262652
0.0521627
0.10006
0.0402749
0.0851494
0.0821872
0.0384079
0.0351548
0.0265963
0.0920384
0.0448904
0.0454181
0.036853
0.0430332
0.0344503
0.0427215
0.0410067
0.052081
0.0375762
0.0465599
0.0375948
0.0482296
0.0718842
0.0727322
0.0173426
0.0496667
0.0467856
0.0449064
0.013079
0.0387132
0.0556012
0.0559217
0.114607
0.046356
0.0518812
0.0562082
0.0869698
0.0777112
0.131062
0.0934064
0.0866337
0.0500731
0.0694265
0.0990277
0.0700634
0.0106549
0.00990458
0.0676466
0.0717063
0.0732907
0.0136936
0.101545
0.0746304
0.0803294
0.106371
0.103446
0.0105781
0.0640361
0.0633893
0.0518132
0.0925136
0.0897972
0.0692492
0.0131224
0.0831665
0.0916633
0.0844957
0.0517155
0.105854
0.122053
0.0636504
0.0630959
0.101838
0.0888512
0.0784145
0.0111168
0.115566
0.0811472
0.067497
0.0659463
0.082771
0.0693464
0.0535786
0.0490566
0.0293777
0.0503537
0.0307637
0.025404
0.0309052
0.0612872
0.0158099
0.014527
0.0361561
0.0355687
0.00811193
0.0167248
0.0247387
0.012212
0.0117575
0.00124248
0.00127731
0.00494097
0.00297029
0.00113511
0.00529919
0.00138461
0.00203544
0.00201871
0.0016609
0.00423987
0.0063974
0.00219258
0.00491352
0.00217889
0.00476218
0.00422728
0.000341939
0.00388735
0.0162588
0.0129876
0.00299514
0.00700497
0.00536533
0.0045959
0.00460587
0.0030117
0.00110291
0.000698301
0.00314287
0.00428833
0.000626424
0.000212985
0.00269949
0.0034229
0.000348069
0.00128108
0.000720372
0.00164443
0.00141868
0.0533699
0.0127696
0.00785306
0.00915933
0.00563108
0.0057148
0.0823009
0.0150356
0.00859444
0.129034
0.0329537
0.00569868
0.0137261
0.0171439
0.151035
0.00656829
0.15749
0.0309979
0.00617058
0.0341657
0.0877999
0.0856191
0.00800643
0.0238586
0.021484
0.00375689
0.0559431
0.0627981
0.0839053
0.0244785
0.0225391
0.076179
0.0923749
0.0119153
0.0140894
0.014036
0.014979
0.0233998
0.0308959
0.0144338
0.0855303
0.0882727
0.0235106
0.0253022
0.042355
0.070197
0.0823925
0.0696947
0.0808245
0.0744649
0.0840986
0.0758554
0.0139518
0.0909628
0.0127072
0.0538441
0.0754978
0.0503926
0.00380031
0.0035184
0.00393901
0.00310605
0.000982859
0.00380698
0.00277426
0.00251553
0.00408217
0.00451644
0.00474757
0.0042109
0.00323548
0.00416688
0.0270141
0.0314074
0.0180021
0.0209538
0.0353799
0.015812
0.0191896
0.0488703
0.0618125
0.050485
0.0654624
0.0363838
0.0297105
0.0408793
0.00897918
0.0166976
0.0193901
0.00629404
0.00363047
0.0266125
0.00297818
0.194817
0.193592
0.0082272
0.0308522
0.159574
0.183876
0.0267025
0.0866116
0.026527
0.0663839
0.0884669
0.124243
0.00144393
0.00169446
0.000972146
0.00119107
0.00128483
0.00111234
0.00119083
0.00113309
0.000940385
0.00089428
0.0902594
0.0112992
0.0841615
0.0139957
0.0528954
0.0496474
0.0437777
0.0581264
0.0714996
0.0714203
0.0839498
0.0899224
0.0847604
0.0458381
0.049337
0.0258515
0.0717737
0.0827238
0.0474834
0.0483384
0.0430532
0.0489206
0.035386
0.0761377
0.0163876
0.0480257
0.0558349
0.0137231
0.0665049
0.0115777
0.0331788
0.0113783
0.0470249
0.0107857
0.0655285
0.00191991
0.0137261
0.0752018
0.061954
0.0460911
0.000870146
0.000870607
0.000873177
0.000873395
0.000871667
0.000869332
0.000873572
0.000870964
0.00086665
0.0008658
0.000875948
0.000871046
0.000869431
0.000869328
0.000878618
0.000886688
0.000871429
0.000876838
0.000867661
0.0762584
0.0778522
0.0722558
0.0793772
0.058488
0.0524672
0.0772383
0.0905034
0.047281
0.082884
0.0565919
0.0707283
0.0879055
0.0490253
0.0737336
0.0641968
0.0785305
0.0287399
0.000947933
0.000964796
0.000971633
0.000934804
0.000953597
0.000971088
0.000977134
0.000977685
0.000966056
0.00102871
0.000994185
0.000981965
0.000994997
0.00100981
0.00102788
0.00102215
0.000857969
0.00084325
0.000842521
0.000864569
0.000878551
0.000859123
0.00085132
0.000856034
0.000825424
0.000825938
0.00087264
0.000832168
0.000872048
0.000843573
0.000878962
0.000852508
0.000853134
0.000852624
0.000875156
0.000860064
0.000851766
0.000888373
0.000869818
0.000865703
0.000845001
0.000896434
0.000899347
0.000862422
0.000873609
0.000967838
0.000853079
0.000921368
0.000914241
0.000335544
0.00086136
0.000896281
0.000869529
0.000900028
0.000904927
0.000752873
0.000871342
0.000857516
0.000852616
0.000692507
0.000886616
0.000890772
0.000885151
0.000879588
0.000880048
0.000880614
0.000880951
0.000900871
0.000891555
0.00088731
0.000889905
0.000891483
0.000883703
0.000873213
0.000886822
0.000884003
0.000899728
0.000888633
0.000895405
0.0008942
0.0746185
0.0737281
0.0714727
0.0567148
0.0662977
0.061245
0.0728289
0.0676678
0.0710138
0.0471723
0.0491877
0.069209
0.0635891
0.0663786
0.0724844
0.0892763
0.065445
0.07177
0.0792769
0.0849816
0.0881652
0.0725774
0.0810723
0.0858956
0.0788746
0.0869029
0.0930522
0.087239
0.0513418
0.0506266
0.0492071
0.0817701
0.0852835
0.000908813
0.000909284
0.000896629
0.000947029
0.000913401
0.000909608
0.000862888
0.000886335
0.000887459
0.00087877
0.00088256
0.00089586
0.000896992
0.000892954
0.00087665
0.00440314
0.00285893
0.00264176
0.00315925
0.00604045
0.00773953
0.00577039
0.00617749
0.00585333
0.000882159
0.000888665
0.000882324
0.000881424
0.000892419
0.000881654
0.000880819
0.000885838
0.000885244
0.000872579
0.000870838
0.000854465
0.000868667
0.000885238
0.000879673
0.000868357
0.000846751
0.000855919
0.000896249
0.000884032
0.000883112
0.000835911
0.000730722
0.00103757
0.000670066
0.000766347
0.0010588
0.00199134
0.000857611
0.000653635
0.000544503
0.000663806
0.000542958
0.000765061
0.000788863
0.00039929
0.000596132
0.000765246
0.000738893
0.00163852
0.000852599
0.00247321
0.000824006
0.000840592
0.000789787
0.000902193
0.000953461
0.000867935
0.000902672
0.000933412
0.000872464
0.000839768
0.000803113
0.000813625
0.00081096
0.000899523
0.000888702
0.000927967
0.000916545
0.000882572
0.000884274
0.000888991
0.00086515
0.00092893
0.000810456
0.000901198
0.000932364
0.000808724
0.00356344
0.00577449
0.00530893
0.00433323
0.00183717
0.00344693
0.000490719
0.00116957
0.00529092
0.0015226
0.00647941
0.0039349
0.00359249
0.000874267
0.00115582
0.00321978
0.00170182
0.00163254
0.000839784
0.00132981
0.00138709
0.00167562
0.00156384
0.00336471
0.00191677
0.00217985
0.0014343
0.00140429
0.00146261
0.0015676
0.00153795
0.00106814
0.00115676
0.00401171
0.00188258
0.00279405
0.00142334
0.00166709
0.00243148
0.00251442
0.00233273
0.00168153
0.00226419
0.00163654
0.00088598
0.000876073
0.000992533
0.000880998
0.000872403
0.00103147
0.000909101
0.000894743
0.000885153
0.000892508
0.0010581
0.000893305
0.00086502
0.000848104
0.000859319
0.000857126
0.000818625
0.000855823
0.000861347
0.000861944
0.000850123
0.000823228
0.000867541
0.000836126
0.000859434
0.000858689
0.00612163
0.00363139
0.00689977
0.00522792
0.00446816
0.00441902
0.00665851
0.00659499
0.00599204
0.00715523
0.00550985
0.00509664
0.00646405
0.00257052
0.00182565
0.00218144
0.00182839
0.00178486
0.00239069
0.0021973
0.00237834
0.00201639
0.00166271
0.00176933
0.00190524
0.0012155
0.00110342
0.00179142
0.00307896
0.00196547
0.00291791
0.00282634
0.00615501
0.00240851
0.0017767
0.00900603
0.00846675
0.017983
0.00493825
0.00857766
0.00288002
0.00321248
0.00795424
0.00422151
0.00173774
0.00511957
0.00128594
0.00369572
0.00176628
0.00595837
0.00121321
0.000915149
0.00159912
0.00572007
0.00108868
0.000321824
0.00132892
0.00558174
0.0334496
0.0370731
0.0185528
0.0124872
0.00657217
0.0206891
0.0259701
0.0306571
0.0228448
0.0227629
0.0446958
0.000839378
0.000830506
0.000836987
0.000839717
0.000834173
0.000837951
0.000837011
0.000833516
0.000834316
0.000832633
0.000837528
0.000839409
0.000834553
0.000998277
0.00114797
0.000396361
0.00163297
0.000664227
0.00115077
0.00110717
0.00137879
0.00117245
0.00110819
0.000987256
0.00109448
0.00116869
0.00105418
0.00150959
0.000940598
0.00100115
0.00108464
0.00130773
0.000977532
0.000994473
0.000975857
0.000734087
0.000777719
0.000656774
0.000480455
0.0010044
0.000690373
0.000673577
0.000909132
0.000665425
0.000780175
0.000781652
0.000843273
0.000847016
0.000821438
0.000771716
0.000840844
0.000829558
0.000854405
0.000841196
0.00085481
0.000840917
0.000865555
0.000861951
0.000840182
0.000831403
0.00084248
0.00084467
0.000940055
0.000856186
0.00086375
0.000927912
0.000924409
0.000939334
0.000914092
0.000913586
0.000933271
0.000942419
0.000925801
0.000935446
0.000930394
0.000917778
0.000935237
0.000913938
0.000485967
0.000938073
0.000973236
0.000708288
0.00100574
0.000893834
0.00087929
0.000925778
0.000918254
0.00090859
0.000919304
0.00102664
0.00141677
0.000906897
0.000925417
0.000751808
0.00100705
0.000583254
0.00129869
0.0014035
0.000847582
0.00166024
0.00238867
0.00162294
0.00180651
0.00359054
0.0028954
0.00267597
0.0042913
0.00639772
0.00220158
0.00495072
0.00711471
0.00215853
0.00172945
0.00402269
0.00609371
0.00394098
0.00661299
0.020051
0.0315149
0.0229253
0.0238461
0.0234305
0.0277395
0.00740291
0.00971418
0.0240324
0.00809701
0.0158431
0.0347618
0.0186257
0.0145882
0.0148247
0.0107129
0.00618306
0.0197918
0.0210234
0.00802662
0.0241523
0.0152282
0.00901786
0.0065
0.0192537
0.0214005
0.0221399
0.00168424
0.00191387
0.00215003
0.00074556
0.000430744
0.0452225
0.00944569
0.0374829
0.0261675
0.0530558
0.0196127
0.0302466
0.0679814
0.0649658
0.0409321
0.0711129
0.106154
0.0237931
0.0661266
0.0273768
0.0372833
0.0332628
0.0290583
0.0289033
0.0271162
0.00684605
0.010899
0.0334442
0.0269556
0.00682165
0.00566516
0.02691
0.0290325
0.00914022
0.00640387
0.0137102
0.0145466
0.0143507
0.00555578
0.00495936
0.0101402
0.00854487
0.0105717
0.010881
0.00808096
0.00825826
0.00505298
0.0085644
0.00947354
0.00759936
0.0108079
0.0064109
0.00967237
0.00541065
0.00883963
0.011339
0.011528
0.0110846
0.0400467
0.0569189
0.0177572
0.018843
0.0279204
0.0163025
0.00828528
0.0409432
0.0668272
0.0680856
0.0285589
0.0521222
0.0610253
0.0499379
0.00513426
0.00149779
0.00404836
0.0021043
0.00100095
0.000765792
0.00438011
0.000184487
0.00481166
0.00585345
0.00627987
0.0025753
0.0010047
0.000743192
0.000947343
0.00147966
0.00286644
0.00277943
0.027867
0.0463652
0.0472783
0.0673659
0.0693802
0.0572563
0.0671661
0.010414
0.0772286
0.0525277
0.0418348
0.0407133
0.0399498
0.0478671
0.0436388
0.0162033
0.0663477
0.0562678
0.0222725
0.0506992
0.00704432
0.0179891
0.000841152
0.000854014
0.000742571
0.000720003
0.000800792
0.000812215
0.00081547
0.000739428
0.000766111
0.000861014
0.000818664
0.000787519
0.000734826
0.000722921
0.000715392
0.000778147
0.000744089
0.000798226
0.000772255
0.000746241
0.00152683
0.00448657
0.0114401
0.000828884
0.000506919
0.000595447
0.0122443
0.000393865
0.0035479
0.000746948
0.000749929
0.00480217
0.000724984
0.000768125
0.00521521
0.0263262
0.0980401
0.0549126
0.0805353
0.0800282
0.0786816
0.0884198
0.0662794
0.00245475
0.00166001
0.00785197
0.00563958
0.00568831
0.00289894
0.00334594
0.00157794
0.00674983
0.00471641
0.00126521
0.00454749
0.0207592
0.0305488
0.0957427
0.0648625
0.0238892
0.0383512
0.094084
0.0948186
0.090017
0.0909281
0.0141665
0.0887835
0.0919788
0.0184832
0.0683049
0.0444083
0.0454212
0.054308
0.000578137
0.00155128
0.00153478
0.0019068
0.00178006
0.000552903
0.000733878
0.00106834
0.00127142
0.0014614
0.00225027
0.000832376
0.00090693
0.000196917
0.000839811
0.00186676
0.00202339
0.000917891
0.0010803
0.00136222
0.00475347
0.00667588
0.00205966
0.00684108
0.00137916
0.00155686
0.00214694
0.00795315
0.00381637
0.00188297
0.0140608
0.0022515
0.00106596
0.00422716
0.00597033
0.00179749
0.00132414
0.00721355
0.000957162
0.00154856
0.000919312
0.000912779
0.000925361
0.000937071
0.000917339
0.000928695
0.000922162
0.000910947
0.00091928
0.000926996
0.000933142
0.000926715
0.000926945
0.000921387
0.000925943
0.000919394
0.0406854
0.073916
0.0407168
0.0291175
0.0908676
0.0984506
0.0627096
0.0503726
0.0476387
0.051997
0.0629723
0.0575988
0.0781777
0.0477814
0.050276
0.0729101
0.0674947
0.0577333
0.00945024
0.00406387
0.00331795
0.00132054
0.0024693
0.0014574
0.00100637
0.0016131
0.0138876
0.0100312
0.00303595
0.00140118
0.00128711
0.00288225
0.0119547