/*--------------------------------*- C++ -*----------------------------------*\
  =========                 |
  \\      /  F ield         | OpenFOAM: The Open Source CFD Toolbox
   \\    /   O peration     | Website:  https://openfoam.org
    \\  /    A nd           | Version:  10
     \\/     M anipulation  |
\*---------------------------------------------------------------------------*/
FoamFile
{
    format      ascii;
    class       volScalarField;
    location    "4";
    object      omega;
}
// * * * * * * * * * * * * * * * * * * * * * * * * * * * * * * * * * * * * * //

dimensions      [0 0 -1 0 0 0 0];

internalField   nonuniform List<scalar> 
75457
(
28.1836
28.1129
23.3461
21.0176
24.8077
28.9391
23.1357
28.9391
17.042
16.7583
15.7628
20.57
20.1749
17.605
2.41006
2.40436
2.3761
2.44666
2.39841
2.35322
2.40347
2.38513
2.40608
2.40404
2.38893
2.46277
2.45028
2.47768
2.53577
2.47133
2.433
2.59056
2.62145
2.41948
2.41245
2.42334
2.40952
2.70087
2.63348
2.4158
2.42519
2.41145
2.39923
2.63633
2.76263
2.45843
2.4171
2.59445
5.48502
3.10229
4.32508
5.05063
12.5056
4.18853
3.29733
3.43262
7.11937
8.00704
7.13997
13.9587
10.9893
5.92364
8.73395
7.19399
7.07258
8.00073
6.6801
8.2934
8.49446
13.9459
8.20204
14.5452
7.76076
7.74606
8.07145
7.1503
7.59891
14.7323
12.596
11.4259
18.3889
13.9855
12.3918
10.0834
10.8408
10.6074
11.9183
12.4415
15.8694
16.8887
11.8328
10.9367
14.5935
10.5742
5.32398
3.08625
3.39057
3.60461
22.8387
6.48173
7.97922
10.5
22.1384
20.0096
39.5574
41.1415
20.8282
18.6976
20.461
7.28044
5.60194
15.7094
18.4633
13.4108
5.31607
9.8499
22.1189
9.21757
8.59705
24.2041
6.0348
6.75454
6.698
6.42345
7.53773
7.58415
18.136
6.45146
11.4095
7.19836
6.85591
6.91291
6.55178
6.0721
3.33137
15.3074
7.03806
5.45859
5.72037
24.6369
4.40701
5.38756
6.63749
4.33768
4.5549
5.97058
7.09388
8.22287
17.8539
4.99635
31.5968
9.24986
5.04189
4.08237
8.95104
13.5363
4.26583
26.8427
5.24568
6.93377
22.5306
5.316
8.23718
6.04099
6.25936
6.53065
6.22223
6.3974
5.78844
5.78731
6.07135
6.29262
6.0189
6.14116
5.95608
5.81677
8.51005
7.74701
7.43964
11.5734
4.35593
26.3834
3.7753
11.836
27.5533
5.01138
3.51324
9.38048
17.7333
39.2738
7.05275
7.29906
8.0237
13.0096
5.98583
26.0857
4.00336
4.60319
4.06769
4.40317
3.91666
7.47707
8.69796
12.904
6.2774
7.16339
12.9386
11.4512
12.2759
12.3661
10.7667
10.9863
23.0508
25.7549
9.09526
10.624
24.6343
10.5647
27.0813
25.1737
25.9012
8.53297
12.1189
23.1692
10.5508
11.3303
27.6144
13.146
7.83626
20.0706
5.03731
4.93047
19.6691
8.33073
9.61041
6.74043
8.83879
4.06829
4.36174
4.62401
4.88478
8.46903
20.5461
6.68757
15.8454
9.83401
6.36436
6.79936
10.4589
23.7425
9.78906
20.742
7.01405
14.0825
5.91375
14.0825
5.35257
4.37438
4.72108
3.32986
3.4735
3.76436
3.91621
4.74526
9.78708
17.6182
12.8815
29.7985
16.9116
19.664
26.3114
16.578
5.87004
6.57154
9.93602
6.12651
10.3073
11.1727
16.9191
9.85301
9.21519
15.6524
9.56872
14.8607
7.23068
14.2157
6.5907
3.86896
3.91465
5.25565
4.80442
5.23751
4.92982
20.8112
15.4087
23.8862
16.2762
8.21483
8.34509
22.2146
7.83852
10.2026
21.7116
4.76094
4.65359
3.13713
21.7116
4.03938
3.92817
21.7116
2.67917
3.85745
6.35598
3.22307
14.6834
17.812
17.2277
15.4563
15.608
26.776
13.9499
19.0695
14.9746
14.8405
22.387
4.2088
4.2196
4.76762
7.42456
12.1872
10.2795
9.06751
10.4513
24.7412
5.31706
5.45199
8.29881
7.62798
30.0631
9.36749
7.96199
28.4185
5.06786
9.19
18.5105
6.48997
13.4572
6.75492
18.5105
6.76148
6.56528
8.30799
6.36053
4.08704
9.12939
7.42566
9.62992
28.099
7.80975
4.99545
15.0969
21.5496
15.7233
20.8239
3.61572
3.48839
4.4894
4.31211
6.23286
5.37614
9.1862
5.01083
5.91523
7.48164
22.9933
11.6811
9.59671
6.66846
14.1229
7.10077
11.9096
9.99041
22.989
22.4274
17.1126
4.00029
8.06204
8.16275
4.63847
4.11612
7.65511
4.52573
4.57967
4.42283
4.41353
4.58683
4.60693
4.51272
4.58177
4.60403
4.61552
4.52601
4.43247
4.52204
4.48898
4.44933
4.56224
4.44239
4.41602
4.36859
4.36955
4.44414
4.37744
4.45979
4.39236
4.49575
4.4767
4.36532
4.42661
4.41074
4.46161
4.44905
4.26254
4.32225
4.33056
4.36926
4.31978
4.34871
4.37929
4.42993
4.26713
4.30318
4.26635
4.26159
4.32237
4.36741
4.33204
4.41328
4.34873
4.37356
4.34014
4.37527
4.33178
4.36241
3.26719
2.62525
2.64824
2.62239
2.6312
3.03983
2.59859
2.52814
2.52284
3.35011
2.48957
2.53055
2.49618
2.56378
2.42559
3.09086
27.1229
16.9399
18.3582
16.9399
12.5451
13.1097
13.695
16.4055
11.3562
12.0411
32.3689
30.8003
25.9192
18.7685
12.5744
8.87689
3.5524
3.49068
3.76452
3.91174
3.68968
3.6057
3.53921
3.4919
3.58483
3.61469
3.65536
3.84811
3.81779
3.58221
4.6935
3.72525
3.63684
3.63718
4.5557
4.61276
4.57924
4.50336
4.47824
4.51621
4.53026
4.54374
4.54304
4.52604
4.55678
4.62848
4.5466
4.58376
4.60746
4.62556
5.82989
5.59573
5.9164
5.59179
5.3631
6.01516
6.36009
6.03577
5.8637
6.03472
5.87494
5.75989
6.0149
5.73901
5.80913
6.24506
6.33814
4.7026
4.86041
4.66792
4.69906
4.62093
4.58898
4.67287
4.79945
4.60002
4.49697
4.7151
4.55246
4.49229
4.50398
4.56799
4.44027
4.61256
4.88711
3.73715
4.42388
5.61349
3.07038
5.2052
3.36806
5.20415
3.1387
3.24651
4.05068
5.70266
5.32677
4.3083
5.72618
2.9559
5.83793
5.96622
2.44964
2.40665
2.43406
2.65274
2.45449
2.66515
2.44324
2.42786
2.43179
2.69857
2.58345
2.44067
2.49591
2.44881
2.54616
2.53618
2.59158
2.52828
2.64968
2.60557
2.59042
2.57661
2.54324
2.57851
2.60185
2.61337
2.55475
2.48188
2.50181
2.60236
2.51462
2.54064
4.25834
4.27111
4.29336
4.50992
4.5648
4.28813
4.28577
4.49694
4.42343
4.47513
4.2641
4.54307
3.20905
2.83383
3.38294
2.77514
3.38746
3.03221
3.33152
3.26987
3.22252
2.63739
2.55741
2.60103
2.62397
2.61591
2.6034
2.63004
2.4213
2.88405
2.3884
2.73411
3.70351
3.48316
4.03347
3.37594
3.224
2.7934
2.62912
2.47955
3.74154
2.56845
2.64065
2.83136
3.63523
3.61632
3.64308
3.67874
3.79316
3.69392
3.64279
3.59136
3.5787
3.66531
3.69314
3.67409
3.68497
3.75237
3.75598
3.67191
3.63835
3.71115
3.57746
2.47608
2.46302
2.42924
2.5645
2.46635
2.5079
2.53228
2.44199
2.45822
2.43162
2.53211
2.50692
2.4653
2.47265
2.58843
2.53414
2.51067
2.59379
2.50909
2.54746
2.45952
2.43663
2.46549
2.41283
2.42955
2.525
2.44742
2.43047
2.44877
2.39829
2.41002
2.43523
5.02449
6.23751
6.37498
3.96014
3.95076
5.42278
4.70626
3.33846
3.65246
6.93046
5.58705
5.73884
5.79
5.94605
5.9606
5.98346
6.78022
5.80257
7.39336
5.59537
5.6816
6.28928
9.03154
8.99328
6.47323
8.77127
9.13063
7.67343
5.92584
7.04999
6.68339
6.62103
2.47046
2.4994
2.63987
2.52312
2.52944
2.41697
2.5202
2.41021
2.32966
3.07909
3.39688
3.8554
2.25442
3.3496
4.62109
3.07038
3.91604
2.33706
3.30418
4.83515
6.89474
3.47969
3.71292
9.60177
7.19741
4.00856
6.81794
5.35106
4.0985
3.46002
3.78586
5.62253
5.98036
7.37012
8.45316
8.23085
8.80209
6.39477
8.64383
7.67588
8.59578
2.40071
2.42775
2.29647
2.29517
2.38824
2.35506
2.38728
2.38827
2.64036
2.34704
2.43843
2.48539
2.26604
2.36239
2.56118
2.34416
2.44091
2.43099
2.40819
2.62271
2.66411
2.39296
2.5965
2.46839
2.66697
2.47315
2.44813
2.67093
2.70547
2.43055
2.5644
2.60156
2.52235
2.52393
2.71854
2.44953
2.51283
2.79755
2.60561
2.47525
2.38912
2.40696
2.53233
3.18211
2.3223
2.42531
2.6108
2.96108
2.37197
2.32493
2.48727
2.42203
2.42597
2.5417
2.55326
2.91329
2.43518
2.42287
2.44964
2.92251
2.33966
2.3909
2.51161
2.33371
4.02947
5.41036
2.4302
2.53419
2.78346
3.12315
2.59918
2.7026
3.00138
3.4889
3.99569
3.64645
2.66494
2.50023
2.46438
2.79468
2.5353
2.64294
2.63925
2.49246
2.53161
2.52194
2.48633
2.43287
2.5196
2.51067
2.55691
2.52196
2.45084
2.58275
2.6346
4.44592
4.73253
4.83666
4.5403
4.69922
4.73885
4.84671
4.60783
4.70095
4.8125
2.91728
2.58104
2.85577
3.17956
2.48835
2.47621
3.17146
3.73474
2.55351
3.17221
3.08376
3.08156
3.38714
2.59652
3.28566
3.09145
2.48824
5.56811
5.88397
5.73859
5.99615
5.66719
5.36471
5.87731
5.61825
5.49336
5.58949
5.68831
5.58155
5.8722
5.63126
5.74267
5.42102
5.55486
5.34214
5.59294
5.4319
4.76306
4.82899
4.74408
4.77109
5.0172
5.14508
5.59439
4.91504
4.91124
4.79037
5.47322
5.52341
4.74434
4.85457
5.08703
5.80691
11.5746
10.3544
10.219
11.0645
12.2148
10.9499
11.2401
12.4852
12.5275
11.6145
11.0169
10.9004
11.9402
2.67996
2.78681
2.65699
2.56167
2.54235
2.57977
2.76659
2.67454
2.59924
2.58613
2.49621
2.62004
3.84285
4.25429
3.99472
3.88638
4.18987
4.10313
3.76573
3.72984
3.69354
3.76516
3.78907
3.75826
3.84685
3.81997
3.91197
3.8462
4.02593
3.84503
3.84699
3.23073
3.19094
3.33322
3.41789
3.55453
2.57311
2.72876
3.25024
3.10232
2.55394
2.5536
2.91925
2.4893
2.78481
2.59622
2.52632
2.52899
2.73774
2.55825
7.54965
9.08211
6.98766
7.22762
6.17523
6.72128
5.60039
5.39926
5.78609
5.60527
5.75664
5.62578
5.63488
5.39078
5.78702
5.38543
4.49869
4.91944
4.64148
4.4087
4.40033
4.48665
4.42114
4.39378
4.42215
4.51249
4.59554
4.48717
4.56658
4.57657
4.81061
4.6501
13.7764
11.2846
11.2722
11.39
13.3238
10.0918
5.36991
5.56564
5.87627
6.1513
5.77944
5.80221
7.45325
9.8677
10.6767
8.2253
10.1189
10.3736
6.02759
8.42477
6.67708
7.63068
7.34578
7.07474
6.83608
7.15466
7.73282
7.37657
6.90139
7.31274
7.38212
7.0575
7.49277
6.96524
7.13345
4.99369
5.24855
5.19217
5.18812
5.79448
6.08522
6.7051
5.68877
6.95908
7.39235
7.12407
6.24067
7.96313
8.48801
3.53746
3.95138
3.45777
3.56299
3.38626
3.58162
3.25925
3.06924
3.80136
3.33736
3.46767
3.06797
3.20681
3.07035
3.13274
3.04877
2.45296
2.48174
2.42855
2.44785
3.28325
3.36451
2.31723
2.83132
2.73713
2.34357
3.11272
3.19621
3.82304
2.94055
3.01973
3.41818
3.1631
3.94568
4.02065
2.5718
3.19336
3.01049
2.78882
2.62983
3.59967
3.0661
3.44955
3.50385
3.37102
2.52043
2.56127
2.74596
2.5534
3.51966
3.40552
2.50906
2.91814
2.66614
2.79053
2.34344
2.47963
2.90267
2.60622
2.50598
8.26311
7.19286
7.20624
8.13131
8.51842
7.55001
7.38484
7.57923
7.54673
7.47439
7.61702
7.44999
8.22163
7.98986
8.07754
8.33197
8.04385
7.84078
7.40399
7.86177
2.95206
2.88903
2.82922
2.76275
2.83181
2.99688
2.74267
2.8213
2.96241
2.8049
2.75675
2.77054
4.51514
6.52355
22.1625
4.96388
17.0882
5.86809
10.0665
18.9142
20.2056
4.65705
10.2044
12.7644
21.4559
6.06666
10.2384
3.68237
7.67052
4.78255
4.12582
7.41839
8.8283
6.86607
4.07422
3.46239
3.36253
11.2563
12.973
12.3221
13.7819
3.33063
3.52152
3.34486
3.21164
3.31555
4.63946
5.23332
4.27261
2.42437
2.52426
2.36017
2.4173
2.34297
2.35613
2.36662
2.35865
2.36102
2.36022
2.45125
2.40644
2.40189
2.38804
2.35709
2.37591
4.80219
3.60938
5.68017
4.93402
12.6364
10.4748
3.3022
7.6654
9.965
7.00045
7.74992
6.77146
3.46295
10.952
12.8472
8.98959
11.6539
4.1531
2.53541
9.01954
2.62459
7.69893
15.032
4.41775
7.36135
3.76592
8.95129
17.0165
9.1128
2.61166
4.06763
4.73732
17.9375
4.20003
6.0206
7.30279
11.5225
4.15584
8.05505
3.71481
21.2198
5.85969
7.10752
25.4353
5.36979
8.47769
7.7816
7.46247
15.3474
5.25577
6.21541
10.5486
14.2869
4.14177
3.64385
8.23865
3.53324
8.25837
15.2261
8.09434
3.20304
3.56188
14.1339
8.78187
3.50908
3.15525
3.84013
3.20337
2.49316
2.76713
2.63887
3.32953
3.44554
2.37591
2.45546
2.45861
3.14166
3.76055
2.66318
2.83406
2.35621
3.08301
3.1335
4.33329
3.6757
4.08209
4.12124
3.90121
3.9415
4.6702
2.79194
3.62323
4.25483
3.96232
5.94437
8.42104
5.28737
11.8955
11.5794
10.9866
10.7662
12.2775
10.6219
10.1908
10.7799
11.113
11.0555
12.3969
12.9181
10.2075
10.4362
10.816
11.2225
10.9126
12.388
11.6176
10.8051
7.68518
9.63583
6.38585
6.34918
10.2532
11.0373
16.6865
15.3668
6.35223
6.54116
7.373
9.83306
10.7126
13.0636
7.6329
9.48984
6.34268
6.38009
7.22441
5.07987
4.44781
4.44662
4.0189
9.83649
14.178
9.29186
11.2712
4.54407
4.35284
11.025
7.45696
4.66663
5.55894
11.1543
7.45943
5.59119
10.355
5.74051
9.69121
2.376
2.3709
2.47005
2.36931
2.45162
8.27075
10.8035
4.72156
4.81373
2.68366
3.15053
2.33068
3.02421
2.8429
6.07381
2.63477
2.36343
2.3254
2.76929
5.91376
5.56521
4.75221
5.3291
5.4279
5.71877
4.901
4.89318
4.59983
4.8703
5.58899
10.3481
8.65856
5.07835
5.91163
7.75095
24.4806
22.8335
24.0488
26.0459
30.4418
27.4797
30.3358
43.4258
40.9912
36.5473
32.3049
31.6975
44.7029
33.7504
32.519
31.2398
38.9013
38.7566
39.4783
29.3595
8.01624
9.5775
7.82175
10.0787
6.21862
6.63268
4.21189
5.212
11.8563
8.10734
16.8851
9.23244
4.65273
4.41792
13.9606
10.9595
16.8451
8.71023
18.8573
6.5353
30.6415
37.5231
41.4732
55.8864
42.0924
29.8291
24.6175
39.5072
47.1096
41.9993
45.3308
35.6067
62.5761
41.0426
79.0063
80.9902
55.2759
2.8098
11.3254
6.64492
30.0651
5.52568
5.28663
7.94052
7.23567
37.7985
7.06481
1.76945
20.3752
12.1246
11.5941
15.2053
14.5456
13.1315
11.6019
10.9369
10.6835
14.0169
15.1344
12.594
12.9304
12.8421
14.1878
11.576
12.8933
12.8164
12.0113
15.4361
11.2175
11.3283
5.8023
5.69237
5.48714
5.6246
6.3179
5.86698
6.30469
5.73491
5.5119
5.63294
5.58679
5.46954
5.41033
5.36208
5.82803
5.67844
5.59591
5.49503
4.82549
5.26165
4.81574
4.98163
5.09052
6.31646
4.77846
4.95638
6.07095
6.95643
5.13518
4.8533
5.07514
5.90272
5.15736
6.01548
6.43624
6.43795
6.07867
5.71282
6.55219
5.57194
6.34189
6.22793
6.35033
5.6093
6.24049
6.22111
6.25958
3.01342
3.13225
3.03279
3.20062
2.91082
2.85749
3.05155
3.01865
3.36086
3.55097
2.98149
3.03318
3.10115
3.21284
3.40871
3.28291
7.12268
7.17518
7.31111
7.11816
7.08402
8.11202
6.97041
7.06782
8.4751
7.27617
6.59268
6.42032
7.124
7.85511
7.68982
7.22173
7.26095
21.8399
21.9961
16.7863
18.1166
19.6365
21.9377
25.1961
25.5077
18.6395
19.7751
25.563
30.1086
24.8701
26.6351
23.7602
25.1502
24.1291
6.96064
5.63912
5.13718
6.93383
5.0544
11.635
18.3541
5.18153
10.874
10.6411
7.34867
10.4401
11.2405
5.49664
2.12967
9.83309
22.5995
5.48584
8.27324
6.78932
5.63491
4.63691
4.46708
6.86997
6.55987
5.27519
5.16604
4.92807
4.81656
4.77884
5.00626
4.65085
4.49162
4.86007
4.59278
4.63781
4.86179
5.26432
4.68648
4.68525
3.78291
3.13732
3.12029
3.74879
3.48233
2.93023
2.81552
2.89858
3.90386
3.22275
3.58945
3.36551
3.99922
3.58403
3.06654
3.08559
4.87921
3.95772
4.30652
5.15561
4.28578
3.84272
7.97044
5.09152
5.69616
5.57713
12.7932
7.55805
4.45683
8.41383
3.83387
6.42782
8.33799
13.0468
15.4118
9.37708
13.6338
15.9037
9.99145
14.3306
10.531
7.35169
5.43294
4.15855
13.6126
9.15972
10.2419
2.62629
3.94719
10.3668
3.52436
9.20257
8.55747
3.45601
3.16247
2.95133
7.40895
5.32434
5.29529
5.27577
5.80423
5.58181
5.63428
5.67618
5.28488
5.39428
5.88444
5.69246
6.90272
7.31493
6.65883
7.88782
5.94662
5.83504
7.70877
7.86425
8.37683
7.98776
7.42537
5.49508
4.39269
4.48036
4.66812
8.35378
6.90798
7.25748
6.89683
6.47336
4.16656
6.15096
7.54346
7.6301
18.1254
17.5614
6.35192
6.42551
6.86231
20.6076
8.16256
11.5499
7.11894
3.16312
8.52727
14.0964
5.79727
4.47613
3.73995
9.1697
8.01576
13.6164
15.6602
6.33274
8.59259
9.46764
3.85284
6.02118
5.61699
4.24741
4.2289
9.44168
8.55516
9.85667
15.4677
6.77915
10.0644
4.2606
3.97919
7.53166
4.10678
3.43671
3.30855
2.89721
3.38183
2.54036
2.58352
2.78747
3.73723
2.5855
2.50485
2.95068
2.90621
2.42583
2.54071
2.65403
2.46956
2.46078
2.37948
2.37708
2.38257
2.36457
2.34692
2.4084
2.36951
2.34962
2.3822
2.38061
2.35878
2.3339
2.37213
2.38637
2.3344
2.33831
2.36843
2.30217
2.38827
2.52456
2.43796
2.31962
2.66199
2.55593
2.54048
2.52661
2.43874
2.36617
2.3485
2.44547
2.49005
2.33958
2.32642
2.40595
2.43617
2.32394
2.34904
2.35993
2.36877
2.35744
6.43959
5.98531
7.65922
7.43946
7.55094
6.85528
6.91947
5.29109
6.01225
7.23099
6.34457
6.23457
5.5832
5.36816
9.49255
5.89938
7.71518
3.934
3.43637
3.94556
7.59338
6.28939
3.43715
3.73279
3.72208
3.28197
4.59235
4.76531
6.77864
2.86612
2.81601
4.84501
6.04616
2.52227
2.61055
2.6013
2.68533
2.88278
3.71484
2.81318
8.98399
6.92687
3.17066
3.07891
4.47298
5.18653
7.60146
5.56813
5.7283
6.59576
7.33908
14.3763
19.9363
10.0612
19.0097
4.04136
6.91611
3.85716
2.3689
2.36055
2.36701
2.36148
2.35654
2.36703
2.35549
2.35529
2.44704
2.49192
2.40167
2.38245
2.36373
2.38807
3.03597
2.95168
2.77115
2.72974
3.59689
2.60284
2.73529
3.59728
4.07044
3.5583
4.26306
3.34369
3.00107
3.47859
2.49787
3.32353
1.82157
19.3013
19.3013
5.35492
19.3013
9.72619
8.25138
9.61318
5.14906
9.60256
8.85346
5.69642
5.97086
11.4293
7.34016
7.08488
9.58611
20.3895
24.2403
25.6155
20.3893
21.2791
21.4973
23.7099
19.6295
23.4739
19.5371
9.64914
10.3123
7.45256
11.4706
4.01539
3.60805
3.1594
4.52909
6.84494
8.46276
10.0956
9.71301
8.51307
3.4383
3.58623
2.40352
7.71371
9.23883
3.57075
3.50967
3.38785
3.72129
3.84443
6.15673
4.04808
5.21932
7.5218
15.363
7.46004
3.75149
3.9785
12.2309
11.5586
14.4408
7.12704
3.39777
3.57675
5.8607
7.07125
5.54596
7.99333
7.86996
7.45869
8.00097
7.59305
7.28314
7.66871
7.53793
7.0878
7.44974
7.15571
7.49696
7.7772
7.52835
7.1548
6.7803
7.01866
6.73942
7.22556
7.10737
7.04074
6.77633
6.85343
7.3478
7.27565
6.88324
6.78402
6.31163
6.25572
7.11288
6.95509
7.53415
7.22927
6.29673
6.31577
6.57608
7.18517
29.2619
29.9933
24.9811
23.6193
38.8024
31.9781
36.7122
30.9428
29.0105
45.8786
35.6821
37.559
37.1948
44.0147
58.1751
55.9078
4.68138
4.88326
4.87834
4.66245
4.62429
4.66716
4.68823
4.6097
4.81173
4.80499
4.5524
4.71862
4.56387
5.45153
5.19149
5.49073
5.47092
5.39413
5.1022
5.76637
5.53719
5.72289
5.47693
5.63582
5.76069
5.35185
5.50133
5.36995
4.87524
4.94854
4.74952
4.82291
5.15263
5.05909
4.73247
4.75802
5.10683
4.91734
5.00755
5.03905
4.93274
4.95554
5.09254
5.26859
9.95699
9.91116
9.7267
9.10177
9.25421
9.6116
8.94357
8.78414
9.22637
9.36899
11.214
11.0174
9.50729
9.18501
9.32201
9.40174
10.8527
9.7555
9.91196
9.72443
8.1425
7.88395
7.60547
7.43189
7.8827
7.78399
8.47399
7.89327
8.78385
6.72754
7.14066
8.60763
7.53469
8.0655
8.54386
9.52606
8.6748
8.51561
9.6955
9.83835
10.3425
9.03651
9.45767
10.6577
9.18394
11.3921
12.1852
11.4047
9.841
8.98432
10.3784
12.5189
11.0546
12.8448
11.9826
12.1911
10.1481
13.5967
12.1915
11.1611
10.7169
11.5586
12.4214
9.96912
9.72988
9.5665
10.344
11.1189
2.84418
2.83496
2.84084
2.82201
2.96165
2.99252
2.92237
2.91535
3.00021
9.17511
9.57125
8.48408
8.51872
9.1511
8.35375
8.26568
8.69966
7.93492
7.77843
7.85935
7.82605
8.09792
8.87603
8.34347
7.89704
8.18871
8.37668
8.70847
9.2374
7.87958
8.60627
3.74334
3.81826
3.73793
3.74804
3.78037
3.89916
3.79685
3.62989
3.78968
3.69119
3.78652
3.66207
3.78989
3.61782
3.63696
3.67626
3.71867
3.63778
3.68845
3.63734
4.97955
4.76913
4.86986
4.67694
5.01409
4.76554
4.84336
4.94344
4.8742
4.78344
4.81019
4.62485
4.69707
4.73598
4.69678
4.92945
4.83563
4.95286
4.63455
4.82268
4.68881
4.92238
4.65341
4.51227
4.59261
4.62083
2.61694
2.73442
2.7369
2.65915
2.46092
2.56253
2.3707
2.42114
2.74002
2.38678
2.86049
2.61581
2.58625
2.36628
2.3932
2.58065
2.46149
2.47297
2.37412
2.3791
2.38475
2.40115
2.44748
2.59894
2.38288
2.48276
3.05193
3.10018
3.22347
3.17261
2.98076
3.05233
3.06815
3.57295
3.83449
3.43219
3.29654
3.06669
3.08174
3.15914
3.26322
3.18156
3.32413
3.15128
4.2204
4.29462
4.47126
4.24687
4.16174
4.38493
4.40814
4.13338
4.14426
4.24441
4.32911
4.15033
4.07995
6.45869
6.98094
6.5314
6.21633
6.53929
6.93482
7.44589
6.79806
6.75054
6.42709
6.58378
6.99587
6.6363
2.95765
2.69758
2.96046
2.89502
2.82335
2.8207
2.99045
2.97453
2.90131
3.03413
2.96958
2.92197
2.99723
2.56373
2.40571
2.40592
2.43742
2.44779
2.55496
2.51906
2.57762
2.4205
2.41854
2.47599
2.46566
2.41536
2.42852
2.45598
2.39405
2.36177
2.34766
2.42666
2.4108
2.37303
2.36514
2.48659
2.46594
2.67688
2.38277
2.43912
2.44673
2.41467
2.45437
2.4405
2.45672
2.44222
2.45871
2.44669
2.44171
2.46932
2.48359
2.43639
2.43492
2.45337
2.48146
2.424
2.47111
2.51211
5.43086
5.51483
5.83069
5.27264
5.17502
5.29046
5.08139
4.85468
5.03163
5.11754
4.88241
4.74496
4.65713
4.91622
5.11026
5.30169
4.85507
5.10026
4.93756
5.15609
5.17398
4.87228
4.88215
5.00961
5.55647
5.72848
5.70159
8.18175
5.67257
5.35399
5.48314
5.45341
5.54918
5.75878
4.60709
5.02899
5.24307
4.89185
5.96623
4.51108
4.88936
4.9776
5.47684
4.8137
5.12349
4.85155
4.87676
4.93282
4.69492
4.63828
4.67856
4.86774
5.1132
5.02206
5.22314
4.83017
5.06876
4.50423
4.56886
4.31008
4.34715
4.51103
4.64697
4.63802
4.67181
4.96981
4.9733
4.66093
4.58073
4.71727
4.82521
4.76469
4.6738
4.8294
4.81565
4.76563
17.117
15.8013
19.7466
14.2148
14.5047
18.3706
19.8397
16.3804
18.5615
17.3102
14.4857
18.6679
15.6251
4.15797
4.23238
3.92651
4.02636
4.07366
3.86673
3.81927
4.01009
4.01938
3.92496
3.86845
4.1786
4.04642
3.84198
4.07159
4.01927
4.51504
4.04675
4.66279
4.506
4.01854
2.37907
2.3776
2.3827
2.38259
2.40298
2.38836
2.4095
2.41398
2.33321
2.29091
2.40568
2.44132
2.32306
2.37705
2.30764
2.36124
2.40255
2.36659
3.98401
4.99458
3.87986
4.24265
4.2642
4.61983
3.36498
3.30645
4.63538
3.37362
3.73775
5.16181
3.82088
3.57699
3.59739
3.42003
3.32483
3.92249
4.22732
3.26628
4.25509
3.59891
3.34437
3.27584
3.811
4.24461
4.3375
2.29184
2.33689
2.32379
2.26423
2.35898
6.62588
5.40393
6.62311
5.86589
7.69112
5.28076
7.09644
10.3838
12.1008
8.73139
14.6608
11.4536
8.00649
10.9346
6.03411
5.69932
5.34609
6.08412
5.84347
4.57663
4.2943
4.80245
5.22521
4.66479
3.98792
3.86249
5.30084
5.88934
3.94064
3.90151
4.16193
4.19584
4.25895
4.97238
6.32386
7.23454
6.49359
10.0657
13.1252
1.83949
6.50499
3.20143
4.31434
18.73
31.617
21.6448
21.6771
9.65513
4.53451
8.0069
20.4384
18.3078
6.79889
4.04088
4.37342
3.57168
3.48913
3.62269
3.39558
3.32384
3.81928
4.8716
4.64374
3.1783
3.86149
4.45122
3.91338
4.85319
3.99513
4.61415
4.45914
3.64782
3.66512
4.49676
3.44771
4.48105
4.81015
5.16797
4.62024
3.4895
3.40349
3.53545
3.58124
4.00977
3.9618
6.89312
9.21249
8.59066
8.53534
9.57111
7.7951
11.9617
7.08728
10.1614
9.55621
6.04853
6.1403
6.12512
6.98169
8.80209
5.71157
9.33654
9.06276
5.71012
7.08218
4.42317
5.63231
3.62535
3.61011
3.60166
3.55638
3.54824
3.48008
3.58006
3.63325
3.58149
3.58051
3.52303
3.47576
3.47394
3.60617
3.58292
3.51352
3.54604
3.51165
3.42003
3.48122
5.71603
5.91458
7.01507
4.63692
5.61656
4.74187
7.15488
5.08872
5.49156
4.45133
4.51451
5.44533
4.66693
4.51349
4.86511
6.23378
7.89791
6.77121
8.92063
9.30057
8.66886
8.44661
7.7288
2.80074
2.94552
2.99764
2.99247
2.91537
2.90607
2.96577
3.00882
2.87745
2.84765
2.95058
2.86991
3.39274
3.52797
9.6706
5.27877
3.22953
3.89657
9.16839
6.83542
9.36788
9.90041
14.9564
7.32635
11.3204
17.0741
6.89551
4.34963
4.34634
4.82193
2.76465
2.83697
2.75431
2.77887
2.89974
2.83954
2.76131
2.94782
2.86105
2.86225
2.92789
3.00863
2.85771
2.8169
2.83846
2.9943
3.04762
2.9043
2.35493
2.36123
2.38105
2.39082
2.3607
2.38119
2.3512
2.36584
2.37367
2.43105
2.36841
2.35891
2.51731
2.37035
2.36455
2.37239
2.3824
2.36027
2.35528
2.40357
2.36816
2.35769
15.8233
14.4457
16.3216
18.9296
15.168
18.07
15.9107
14.3574
17.04
18.8468
18.4846
17.0432
16.7716
15.6456
17.0034
15.256
6.75679
6.51712
6.76422
7.27875
7.13724
6.93905
6.52666
5.92831
5.63338
5.87495
6.0307
5.89636
6.89691
5.72427
6.06572
6.51283
6.5984
6.3244
2.48993
2.57543
2.5769
2.44948
2.48685
2.48607
2.53836
2.55594
2.55071
2.49265
2.49093
2.49395
2.42224
2.38756
2.52906
2.44011
3.90117
3.8727
3.92963
3.87565
3.73017
3.89084
3.8664
3.88648
3.91359
3.89663
3.86373
3.91428
3.90168
3.8699
3.79748
3.81704
3.78716
3.76797
3.72826
3.74062
8.86383
8.65305
7.63921
6.65289
5.04
7.22727
5.85771
6.35697
6.75635
7.93987
5.09618
4.86072
5.90689
6.13275
5.34444
5.67302
3.3815
3.46589
3.43115
3.37696
2.89583
3.12409
2.55787
3.01216
2.57081
2.45466
2.54244
2.43776
3.13323
2.76232
2.43983
2.90812
3.39955
2.38941
2.3818
3.06152
2.79458
2.54868
2.36834
2.35505
2.55681
2.81367
2.44541
2.40256
2.5095
2.52525
2.53671
2.54308
2.70904
2.73748
2.70002
2.7473
2.50058
2.55866
2.40757
2.47395
2.49597
2.47134
2.62632
2.63145
2.44304
2.56336
2.60757
3.43412
3.61577
3.12716
2.91875
4.06123
3.66269
3.23682
3.26815
3.68983
2.98881
3.05737
2.87641
2.92402
3.14319
3.15207
2.92389
3.08461
2.92782
3.45462
3.03681
3.12584
3.16216
3.2493
3.25895
3.20354
3.10624
3.26294
3.24783
3.16463
3.27142
3.15506
3.18229
5.92659
5.6271
5.69075
5.82812
5.56627
5.74783
5.84864
5.76827
5.68291
5.70221
5.68044
5.52309
5.50668
5.51031
13.3012
13.6465
17.8936
17.4827
18.3743
18.4901
13.213
11.8351
15.4265
16.3632
13.5928
16.5865
14.4303
15.0442
2.38219
2.37641
2.3659
2.38524
2.49064
2.56578
2.42046
2.42003
2.36631
2.39725
2.38347
2.36753
2.37585
2.38426
2.37387
4.81989
5.54147
3.89207
2.39902
4.18695
5.54519
5.92503
3.6141
3.98928
3.6285
3.67888
4.00341
3.69974
3.76083
3.63101
3.45511
3.72617
4.32133
4.12139
3.77019
3.90872
4.10652
3.83291
3.86668
4.20886
3.87966
3.86339
3.79628
3.81945
3.73772
3.84101
3.73783
3.63354
3.63802
3.78302
3.71277
3.70393
3.74573
3.57238
2.42933
2.41437
2.37606
2.35747
2.34945
2.42648
2.46807
2.42797
2.41528
2.43036
2.47626
2.32126
2.40709
2.40661
2.41107
2.64886
2.91426
2.55453
2.46621
3.32568
3.13551
3.08428
2.75861
3.32036
2.39686
2.81075
2.46946
3.08132
3.39225
2.94221
3.25949
3.11726
3.32924
2.8376
3.2695
3.06607
3.5053
3.27326
3.50723
3.46354
3.35931
2.80299
3.39868
2.67292
2.70976
3.25636
3.04437
2.95108
2.8675
4.08167
4.12214
4.18104
4.11111
3.98706
4.09904
4.00563
4.03689
4.04606
4.02806
3.96604
3.98221
3.98076
3.93618
4.03463
4.05394
3.98114
3.96437
3.96224
3.92563
6.86534
6.5782
5.30493
5.69205
7.293
6.23174
5.52249
6.53131
4.92767
5.04762
5.01469
6.71375
7.84109
7.42854
7.49868
7.55303
7.66522
7.45491
8.01903
7.87343
7.33121
7.36633
7.04956
7.10498
7.03698
7.95616
7.65361
2.46532
2.48265
2.46848
2.45607
2.71554
2.70015
2.68029
2.57934
2.61794
2.49837
2.56585
2.43908
2.44454
2.52148
2.52099
2.47612
2.60956
2.62053
2.84408
2.72045
2.65947
3.125
3.09218
3.57144
3.35763
2.9562
3.2018
3.05594
3.29137
6.9552
6.13025
6.16358
5.96935
6.44374
7.58826
6.02749
6.11998
5.94158
6.00977
6.47084
7.69447
6.24896
13.5139
14.3865
14.0114
11.8448
12.6776
11.9268
11.1629
8.68704
9.3342
14.4856
13.7561
14.882
15.0678
9.39007
8.89503
12.7196
10.8286
9.32792
10.4629
12.922
4.75783
4.73825
4.63118
4.7176
4.53562
4.47028
4.94923
4.5902
4.65512
4.5802
4.93997
4.65499
4.66536
4.91566
2.62527
2.30841
2.39309
2.40484
3.29958
4.47229
2.66554
2.56972
2.85615
3.3299
2.42112
2.46448
3.01216
2.71095
2.34785
2.7755
2.47369
2.42704
4.07785
4.12453
2.68717
2.75111
4.16394
4.18638
4.11076
2.93475
3.17502
3.24567
2.74376
3.02171
4.33444
4.4855
4.83392
4.66845
6.46292
4.97307
4.25089
4.0072
27.7564
5.76915
12.8489
5.97086
8.91896
2.51375
2.49448
2.66616
2.80781
2.48944
2.53419
2.48408
2.46532
2.72393
2.5953
2.54166
2.61273
2.48237
2.53666
11.9726
12.1304
12.7055
18.0781
15.592
17.8515
6.01725
7.53167
11.5628
15.2953
5.89486
4.75885
4.86662
4.94927
4.88031
4.61891
4.63384
4.75319
4.73379
4.86329
5.0065
4.87134
7.28655
7.84835
8.641
7.86257
6.68167
5.89936
6.63968
7.53102
7.03175
5.92786
6.45003
5.63567
6.95567
7.61441
7.07072
5.59759
5.7163
5.49812
5.43779
5.62352
5.50389
5.21844
5.32391
5.27559
5.27875
5.52644
5.78629
5.39211
5.49598
5.43263
5.3838
5.69051
5.82964
5.40191
5.62263
5.51063
7.33089
6.97149
6.99603
6.62681
6.37671
6.1694
7.67158
8.07964
7.31329
6.65547
5.95672
7.00102
5.6076
7.18834
5.70449
7.05964
6.43697
8.26802
8.21082
7.92891
7.80834
8.5087
8.90653
8.37187
9.43709
9.81324
8.78956
8.24133
9.13497
8.55802
7.49142
8.16262
9.08756
7.98804
8.27807
7.70533
8.35117
5.8245
5.96318
5.76957
5.85133
5.59236
5.78837
5.94677
5.69191
5.74159
5.90127
5.88367
5.91317
6.12516
6.13459
2.42864
2.6836
2.53378
2.65871
2.67009
2.55312
2.99637
2.52589
2.5887
2.595
3.3077
2.7021
2.57699
3.43928
2.90513
3.45816
3.93239
2.53566
2.82851
3.17094
5.15818
3.38033
4.27838
2.9282
4.41671
2.35901
2.36068
2.37012
2.35928
2.36626
2.36023
2.35717
2.38153
2.37024
2.3779
2.36187
2.35658
2.36673
2.35484
2.37132
3.68456
3.76136
3.25177
3.02475
9.51531
10.5965
2.99356
10.9178
3.39165
3.65275
3.3629
6.00718
5.29836
9.92317
11.3935
7.69333
9.03882
7.93822
5.72178
5.76676
5.83856
5.67652
5.95889
6.24166
5.79307
5.71574
5.87009
5.64264
5.64217
6.49893
5.88296
6.14023
5.82859
6.15751
5.5185
5.53734
6.49599
6.01885
6.35744
4.59037
4.50258
4.50998
4.49036
4.51972
4.51795
4.58607
4.60687
4.5386
4.55154
4.60875
4.70041
4.80901
4.72658
4.68554
3.60436
3.67817
3.63089
3.61085
3.67375
3.7497
3.69598
3.59237
3.94599
3.75573
6.73908
6.88903
7.15744
6.96128
6.54391
7.07348
7.5281
7.32074
7.3156
6.85233
6.746
6.99465
6.14946
6.37289
6.84809
5.83671
5.65011
6.04058
6.06382
5.79962
5.55885
7.07339
7.03136
7.5466
6.6151
6.78655
5.54473
5.7681
6.37917
6.68797
6.58821
7.09643
2.65797
2.66503
2.70049
2.69197
2.41143
2.62708
2.41961
2.39948
2.35329
2.82515
2.93856
2.78769
2.43426
2.57939
2.9843
44.3259
15.0126
20.9617
10.039
17.889
35.763
31.7594
26.3131
12.9732
11.5537
10.039
23.6689
15.8565
14.7586
27.3254
4.93063
4.78788
4.92136
4.87046
4.71286
4.83335
5.35685
4.94536
5.70379
5.08481
5.4666
5.01529
4.8785
5.11404
5.00342
4.81528
4.78391
4.86701
5.03542
4.66894
4.6282
4.96663
4.87316
4.96641
4.83063
4.80656
4.84873
4.68951
4.74633
17.4299
13.2461
21.1357
33.1291
24.2328
19.743
17.2041
39.2964
20.1672
2.71657
2.58839
2.74579
2.75847
2.54372
2.56763
2.78499
3.60375
3.68111
4.46827
4.28262
3.16586
3.23753
3.97592
2.82894
3.62065
3.68986
2.87681
59.7755
66.9527
81.1535
38.2164
64.7939
75.0805
105.352
101.137
45.0833
89.1241
60.307
61.1962
85.1135
88.1009
122.341
124.519
212.202
76.5922
92.2318
122.496
204.111
62.222
65.9196
62.0285
81.1257
63.679
121.402
46.9803
46.119
82.0665
62.5243
7.80905
5.01214
6.16269
20.2086
7.36599
25.7932
3.98883
7.36742
14.3844
7.00457
9.50518
9.27967
10.5369
9.53862
10.0901
8.89179
8.39228
9.69327
10.6153
9.74887
10.5888
10.4507
9.85467
10.2965
9.91064
14.9599
15.0211
15.2533
13.9365
16.9694
17.1592
14.4034
13.214
17.1566
14.7825
15.3961
11.6013
12.653
10.7831
13.7019
9.1105
14.9638
13.1002
8.56224
24.9354
23.4695
32.8682
28.7025
28.0428
26.8688
28.3113
34.7064
37.1001
35.9964
36.8173
41.8271
45.2186
8.35735
7.46983
12.8603
15.4986
7.94136
8.38977
14.7067
11.4463
7.4827
7.27139
11.8798
8.50491
8.06941
8.25944
9.66285
14.1143
16.1701
19.6223
15.4213
19.0699
16.3773
10.4465
22.8538
13.1765
22.5281
23.2155
22.4172
28.2474
24.9026
9.44617
8.58824
20.6676
26.5363
28.23
20.7129
3.29218
3.26475
3.13506
3.21623
3.2234
3.30163
3.34602
3.27542
3.11529
3.14205
3.23549
3.2858
3.22277
3.35907
3.28767
3.6824
3.53909
3.55586
3.16125
3.40047
3.57128
3.24077
7.35218
6.87119
7.19216
6.73761
7.13051
7.33693
7.81486
7.68726
7.34619
7.0335
7.12236
7.6725
7.11301
7.81431
7.50329
7.40946
7.16863
3.54995
3.74573
4.02663
4.0327
3.88975
3.68722
3.52273
3.56384
4.11493
4.38258
4.85401
4.58045
5.19999
3.24741
3.71578
3.99195
3.87199
4.12773
3.81452
14.89
12.874
8.20588
8.50945
7.6823
7.45443
8.43142
10.2208
15.9998