/*--------------------------------*- C++ -*----------------------------------*\
  =========                 |
  \\      /  F ield         | OpenFOAM: The Open Source CFD Toolbox
   \\    /   O peration     | Website:  https://openfoam.org
    \\  /    A nd           | Version:  10
     \\/     M anipulation  |
\*---------------------------------------------------------------------------*/
FoamFile
{
    format      ascii;
    class       volScalarField;
    location    "4";
    object      p;
}
// * * * * * * * * * * * * * * * * * * * * * * * * * * * * * * * * * * * * * //

dimensions      [0 2 -2 0 0 0 0];

internalField   nonuniform List<scalar> 
75457
(
-47.3614
-42.6948
-39.5781
-35.7585
-30.5473
-32.9656
-42.5531
-43.1986
-29.8106
-23.6808
-27.5118
-30.6523
-30.4574
-27.6587
-3.44916
-4.25267
-4.67206
-3.95857
-4.84934
-4.54456
-3.55035
-4.70258
-4.28369
-4.74246
-4.71581
-5.40501
-4.72081
-0.876668
-0.904883
-0.423549
-0.221186
-0.437039
-0.399662
-0.44091
-0.19917
-0.931714
-0.806616
-0.919962
-1.12775
-0.312659
-0.70512
-0.356917
-0.730371
-11.1719
-10.5621
-10.1638
-10.3307
-10.7098
-5.3954
-5.9571
-6.31985
-5.82741
-5.71704
-5.82068
-6.35455
-6.44172
-6.03885
-6.29499
-5.80593
-6.00298
-5.75715
-5.75419
25.8527
26.1396
25.8768
26.231
26.4959
26.5097
26.141
26.1819
26.4829
26.2611
25.9503
26.253
26.2377
25.8903
26.1241
-6.87538
-8.1407
-6.72568
-8.51771
-11.4561
-4.53404
-4.86894
-7.85403
-9.01568
-8.04235
-8.40853
-4.22649
-6.73974
-4.63192
-5.53419
-7.85944
-6.17537
-9.64978
-9.85301
-9.85603
-10.165
-9.90047
-9.6682
-10.743
-10.0758
27.027
26.9176
27.1768
27.1934
27.0615
26.913
26.8323
27.2808
27.2829
26.8998
26.9086
17.7349
18.3955
20.8308
20.408
17.7921
19.3661
19.3966
18.8654
19.2252
20.9018
20.6906
21.2252
21.7583
20.5214
19.9605
18.7702
21.1763
20.1778
9.63966
9.60442
9.07348
9.92474
9.54833
10.9896
10.6922
10.5753
10.5732
4.23917
3.8002
4.34538
3.91505
3.40116
3.85614
3.89514
3.01072
-9.26394
-9.27287
-8.72552
-8.89087
-9.21053
-8.92141
-8.71997
-8.29982
-6.82696
-6.90765
-8.20585
-7.95685
-7.60655
-8.18004
-7.15522
12.0015
13.5816
13.8195
13.1664
13.5822
9.90979
11.2987
12.8355
11.8428
12.8004
10.1487
8.84867
9.44099
-11.7603
-12.1668
-12.0216
-12.2171
-11.9405
-12.1062
-11.6033
-12.3753
-12.1351
-12.3492
-12.3267
-12.3159
-12.2252
-12.2087
-11.4596
-9.80967
-11.9545
-10.2931
-10.1001
-11.853
5.8497
6.55476
5.20666
6.09681
4.34766
5.09947
7.49482
7.15442
6.34443
3.70655
3.65672
-10.9944
-10.8218
-11.1691
-11.1132
-11.1455
-11.0715
-10.8815
-10.7129
-10.2043
-11.1314
-10.9585
-10.6699
-11.0311
-10.5318
1.57066
0.72439
1.06678
-0.450655
0.0213382
0.656698
0.460602
1.6751
1.26297
0.469223
-0.128227
-0.636613
1.35864
-0.119082
-10.1518
-10.2438
-9.537
-9.36795
-9.82329
-9.73661
-10.1465
-10.0088
-10.3632
-9.39005
-9.7398
-9.11617
-9.89183
-10.2078
-9.81986
-9.60365
-9.91742
-13.75
-13.4896
-13.3526
-13.4112
-14.8316
-13.3963
-13.5531
-12.7193
-13.1281
-13.9105
-12.5534
-13.8897
-10.1905
-10.3803
-10.2955
-10.2188
-10.2301
-9.93531
-10.2319
-10.0473
-10.0083
-10.1354
-10.1275
-9.9951
-10.0236
-7.46368
-7.30869
-7.51301
-7.18944
-7.17712
-7.03298
-6.85809
-6.88191
-6.84006
-7.1715
-7.45661
-7.31134
-6.78127
-7.07947
-7.08224
-0.168308
-0.0577798
-0.131752
-0.273451
-0.0827021
-0.0142563
-0.381619
-0.320916
-0.0716915
0.162762
1.05927
0.555836
0.957525
1.33409
2.24139
1.29268
1.13693
1.28012
0.919306
0.973461
-0.146562
0.534056
-3.07242
-4.85082
0.0251241
-1.54101
-2.51589
-4.54851
-4.72153
-1.62094
-4.68789
-4.72891
-3.61737
-8.52999
-8.61593
-8.77757
-8.72364
-8.6137
-8.47687
-8.48067
-8.80418
-9.02599
-8.90423
-9.05905
-8.34594
-8.64666
-8.71877
-8.85985
-8.60966
-8.78019
-10.9517
-10.708
-10.472
-11.5777
-15.4918
-14.4376
-14.517
-12.3218
-12.627
-12.0914
-13.4016
-2.98905
-3.64449
-4.2065
-4.13526
-3.6941
-3.73057
-3.05334
-3.85312
-4.15909
-3.42783
-3.66666
-0.162011
-0.148569
-0.240429
-0.343862
-0.120291
-0.118399
-0.287659
-0.11943
-0.355281
-0.446175
-0.408759
-0.177267
-0.297282
-0.667086
-0.607339
-5.72059
-3.21485
-6.73933
-5.48833
-5.24127
-8.61004
-9.14659
-8.65385
-9.10585
-9.14508
-8.63947
-9.61062
44.7698
49.5393
38.1601
40.8227
43.5928
45.5752
45.3328
48.1506
40.596
45.0349
43.3894
44.3515
40.3008
44.7782
39.1989
40.5592
42.488
37.5905
29.4839
29.0293
29.7129
30.3996
31.3162
32.2369
29.7405
30.3955
32.7652
36.1499
32.9349
33.2231
34.9809
20.6235
17.8708
15.4706
17.1319
21.5226
18.2268
16.8353
18.2947
17.8781
15.9885
23.2169
23.209
16.5505
18.1009
15.4732
21.5766
23.7016
23.8151
19.8814
19.8696
20.4578
21.7687
-12.4921
-13.2063
-13.4012
-13.385
-13.5268
-12.7284
-12.9547
-13.0801
-13.0858
-12.6391
-13.2361
-12.837
-13.0491
-12.8316
-13.0765
-12.8528
-38.6772
-43.4393
-25.8191
-31.8728
-24.3002
-32.3067
-30.1052
-27.6083
-23.92
-29.9677
-48.5202
-42.912
-28.2291
-38.6508
-25.2054
-26.0928
-1.03232
-1.16175
-0.994681
-0.251172
0.043722
0.652772
-1.37695
-1.65383
-0.11031
-0.130146
0.66323
0.317183
0.105276
0.0470054
-0.148472
-0.73918
-1.40467
-0.700547
28.6831
32.9089
31.5059
27.943
29.268
32.0663
35.535
34.5701
29.6636
35.5813
37.318
35.5296
31.6792
28.4443
29.2366
30.1433
21.9115
21.2918
21.7989
21.5687
20.7638
22.4941
23.078
22.477
21.8381
22.8224
22.2602
21.444
22.2885
20.7254
21.397
22.9099
23.3895
8.21105
8.03337
7.79347
8.12848
8.13871
8.22896
8.28695
8.30343
8.29262
8.15701
7.89745
8.01572
8.38548
8.06108
8.27723
7.51877
7.54523
-4.28669
-5.0845
-6.45503
-5.55897
-4.98467
-4.41416
-4.91676
-4.42799
-5.60154
-5.46186
-6.50301
-6.17973
-4.97439
-5.52342
-7.04168
-5.54418
-4.60165
-5.70665
-4.0212
-4.34226
-3.80351
-3.87313
-3.43457
-3.45044
-3.56521
-3.70759
-3.16318
-3.36728
-3.39981
-2.97679
-2.81807
-3.27169
-6.81543
-6.32909
-7.31916
-8.07061
-8.38636
-7.86919
-7.10556
-7.01482
-6.91337
-8.34634
-8.30737
-7.92
-7.36504
-6.88167
-7.33492
-7.8708
-7.9626
-8.18802
16.0207
11.7704
12.6278
19.4955
15.7808
9.87714
12.7888
13.1306
9.52284
17.9784
13.0432
10.1141
-10.7584
-10.3744
-10.0175
-9.83223
-10.1507
-10.5796
-8.45511
-9.11312
-10.6318
-10.0834
-10.2092
-9.24474
-9.42515
-10.305
-10.1066
-10.0581
-4.66677
-5.15777
-4.16477
-4.58748
-5.52893
-5.62105
-5.01116
-3.85332
-3.85977
-4.12747
-4.09781
-5.21886
-5.45416
-4.37628
-3.95631
-4.89772
1.36655
0.68823
0.0307147
3.03432
3.92465
1.57124
2.22749
-0.758764
0.751785
1.38549
2.93573
1.87487
2.86751
3.60276
3.32069
0.422672
0.531545
1.72822
-0.0129836
-1.47248
-1.0435
-1.33031
-2.63341
-1.83371
-1.38408
-2.82435
-2.56422
-1.604
-1.99046
-2.0742
-2.93509
-1.96413
-1.87335
0.1022
0.110266
-0.643078
-0.603796
-0.480058
-0.51578
-0.56305
-0.290748
-0.418785
-0.490715
-0.665013
-0.350228
-0.647753
-0.45844
-0.30372
-0.447414
-0.398929
-0.621802
-6.15429
-6.74201
-5.93191
-4.74302
-5.36538
-8.65249
-6.31494
-5.94709
-6.12507
-6.9989
-8.36725
-8.79563
-8.87673
-9.09168
-9.39349
-9.59272
-9.5804
-9.24524
-10.6314
-7.70043
-7.29656
-9.16766
-9.95548
-9.56889
-9.38686
-9.20566
-9.77921
-9.22631
-7.91861
-8.34846
-8.75115
-8.19777
-13.0935
-13.1878
-12.8517
-13.1053
-12.7249
-13.0189
-13.0181
-12.9049
-12.6757
-12.6535
-12.9259
-12.6427
-12.9075
-12.6245
-12.7719
-12.7546
-12.7045
-7.57042
-7.60706
-10.0566
-11.3304
-8.56707
-8.88293
-10.7707
-10.9776
-9.13581
-10.9222
-9.53639
-2.43553
-2.25528
-1.72829
-0.652998
-1.21437
-0.160065
-0.769949
0.479468
-1.1297
-0.924327
-0.704859
-0.980412
0.559381
-2.2286
-1.90879
-2.09156
-2.37007
-2.26407
-1.73587
-2.03743
-1.78101
-2.38821
-2.3628
-1.6374
-1.60437
-2.12833
-1.35924
-2.08161
-1.83902
-1.43509
-1.87048
-1.53539
-1.89126
-2.04997
-1.4845
-7.1788
-7.23966
-7.53001
-7.28122
-6.67661
-5.77498
-7.05921
-5.83536
-6.22555
-5.11493
-5.44432
-5.89316
-6.76688
-5.68588
-5.72718
-6.9667
-5.77579
-5.09467
-5.53756
-4.97823
-6.95042
-6.97429
-7.32428
-7.36987
-6.58638
-6.55436
-7.37416
-7.17061
-7.02399
-6.0851
-6.39079
-6.37743
-6.08374
-6.38804
-6.5396
-6.77784
-5.99377
-6.04892
-6.53696
-6.78219
-5.99296
-6.13611
-6.10368
-7.49773
-6.33767
-7.07221
-6.48918
-7.70776
-5.69213
-5.57663
-5.03756
-6.01123
-6.96518
-6.73854
-7.21808
-6.17594
-5.8493
-6.83869
-6.55283
-7.48713
-7.15314
-8.58023
-7.78007
-8.69466
-9.62701
-9.07927
-8.6124
-8.15156
-8.06576
-9.05173
-9.3087
-9.85058
-8.48449
17.0093
17.6447
18.595
17.4404
18.2635
17.125
18.1683
16.9452
17.4795
18.5074
-11.6715
-11.4825
-10.7887
-10.7968
-11.78
-11.6287
-11.0617
-11.2779
-11.5572
-10.7383
-11.2134
-10.9155
-10.9935
-11.5322
-11.0458
-11.3734
-11.5633
-14.8044
-14.355
-15.8787
-15.4555
-15.3162
-15.9006
-14.303
-14.5918
-14.0637
-14.3273
-15.2129
-15.2106
-13.8088
-14.84
-14.8391
-14.6094
-14.8556
-15.3779
-14.2427
-14.4438
7.69263
8.09645
8.82809
8.23724
7.84894
9.05886
5.52622
7.09995
7.3545
7.03596
6.32816
8.4719
7.93511
8.48572
7.5895
7.15424
-15.7435
-16.3461
-15.5001
-14.3756
-15.0904
-12.7682
-14.1382
-14.4045
-15.2965
-16.2226
-11.7127
-13.8121
-14.5803
-13.3888
-14.1732
-12.6481
-12.0397
-11.9664
-12.853
-13.1746
-13.5367
-12.0245
-11.6573
-11.4678
-12.3881
7.37
6.39263
6.05426
6.12958
6.13287
4.75173
4.38191
3.83599
3.93508
4.4407
4.51547
3.64495
5.24565
4.44582
6.08499
6.20379
4.38047
5.3793
5.0255
-11.4919
-11.4317
-12.7631
-12.3398
-13.6017
-11.6176
-11.2165
-12.3067
-12.3214
-11.4718
-11.3402
-12.4853
-12.6953
-13.2433
-12.0542
-11.9473
-11.6294
-12.7725
-12.1139
-6.24757
-8.14638
-6.74883
-5.63645
-6.79419
-7.40019
-6.80929
-5.95168
-6.24435
-8.50238
-8.24626
-7.38709
-6.66227
-6.53525
-7.87475
-8.19593
15.9098
16.4366
15.6746
15.5205
16.5967
17.5303
17.539
16.5107
16.4267
17.2724
17.4706
16.5245
17.5472
18.036
18.768
18.1707
-10.5319
-11.9634
-8.85159
-8.86566
-13.1942
-15.2131
-6.50642
-7.53407
-11.6298
-13.3377
-10.0115
-10.3377
-11.3171
-15.5077
-14.2628
-8.15135
-13.2721
-10.9199
-13.2187
-14.863
53.5377
47.5686
43.2792
42.9504
52.0226
53.3037
46.8081
51.6188
45.8094
47.8036
45.3841
45.858
42.6647
42.5308
48.2441
16.4255
14.9336
19.7681
21.0165
18.8331
15.959
21.5272
18.0787
20.5963
23.8244
22.6145
23.929
25.7799
23.2864
-15.8474
-16.5414
-16.0309
-16.7446
-15.16
-15.4418
-13.9903
-12.9793
-14.9258
-14.8311
-13.3287
-12.9273
-15.2731
-13.8834
-13.522
-14.071
-5.85722
-5.47012
-5.51858
-5.60603
-5.41176
-5.8535
-5.65953
-5.89028
-6.05882
-5.16256
-5.18285
-5.14589
-5.8967
-5.94499
-5.12483
-5.64904
-5.56753
-5.98586
-5.73562
-13.6228
-13.5362
-13.2645
-14.2789
-14.2676
-14.2593
-13.238
-14.4051
-14.165
-12.55
-13.1578
-13.2041
-13.2952
-13.0314
-14.5821
-14.2692
-12.8734
-13.4379
-13.1606
-13.22
-12.6725
-12.756
-13.4392
-12.7402
-12.7235
25.3783
24.5122
24.5549
25.0473
25.2341
24.7948
24.5665
24.6216
25.3361
25.1105
25.1853
24.9145
25.0586
24.8194
25.1591
25.2175
25.2039
24.9807
24.6218
25.2989
-9.30496
-10.0872
-9.26172
-9.8548
-9.34966
-8.99445
-9.13576
-9.91038
-8.95929
-9.28491
-9.49998
-9.64911
-4.52227
-4.46947
-3.97871
-3.73311
-3.56209
-4.54669
-4.59554
-4.7976
-4.38033
-3.79031
-3.75659
-3.99519
-4.2544
-3.67562
-3.88586
-4.0573
-4.07646
-3.98507
-2.91753
-2.76826
-2.9976
-2.72966
-2.85312
-3.19956
-3.26832
-3.47181
-3.49638
-2.77679
-3.19566
-2.88691
-3.51433
-3.38865
-3.02432
-2.84552
-3.55316
-3.23049
-2.81366
-2.10026
-2.19425
-2.37904
-1.57695
-2.0039
-1.86853
-1.57114
-2.48568
-2.13369
-2.53597
-2.32982
-1.70104
-1.66024
-1.89847
-2.64558
-2.57746
-6.6402
-6.1423
-6.91656
-6.63627
-5.70914
-5.65501
-5.86476
-6.752
-7.12931
-12.5572
-12.2806
-12.2466
-12.6002
-12.4662
-12.5484
-12.2955
-12.6727
-12.4723
-12.4767
-12.5714
-12.5189
-4.17053
-3.87193
-4.17544
-4.13196
-4.14563
-4.28179
-4.3421
-4.37474
-4.49921
-4.25744
-4.82992
-4.69265
-4.73935
-4.86472
-4.66759
-4.695
25.4717
25.6336
25.4354
25.1534
24.765
24.767
24.3605
24.3081
24.61
25.1716
-8.64423
-8.52765
-8.76531
-8.54544
-8.7684
-8.71795
-8.95904
-8.90163
-8.92597
-8.96183
-8.78211
-8.63125
-8.85401
-9.09498
-9.00539
-8.83005
-8.77316
-8.80679
-5.59598
-6.08054
-5.5775
-5.73386
-5.70525
-5.64677
-5.92981
-5.63034
-5.83841
-6.27835
-5.93037
-6.22316
-5.96993
-6.16648
-5.60211
-5.92368
-6.07483
-5.86699
5.01335
4.43841
3.89606
4.78799
2.94633
2.47137
5.34991
4.86285
3.67354
4.99851
4.05141
3.24258
3.91579
3.94185
25.7778
25.6803
25.5435
25.3763
25.8318
25.4052
25.2226
25.2584
25.5744
25.3833
25.578
25.7038
25.253
25.225
25.1144
25.156
25.5439
25.3375
25.493
25.2511
39.8113
38.3746
31.0306
34.3575
24.3411
28.3452
14.9801
29.8104
29.6105
26.8687
32.5004
23.4631
34.8597
40.0057
36.0441
43.798
24.7694
36.3278
31.7652
-15.2838
-16.4728
-11.8023
-10.9279
-16.0575
-19.1586
-19.2744
-22.0112
-11.6661
-11.6515
-24.7839
-21.3217
-14.611
-18.1995
-20.8598
-14.9808
-15.564
-22.3274
-18.1341
-18.944
-0.110661
-0.547185
-0.215462
-0.409195
-0.654244
-0.260372
-1.09911
-0.136543
-0.671862
-0.772086
-0.333775
-0.639707
-0.767262
-0.219338
-0.870654
-1.0864
-0.860824
-0.761106
-0.300438
-8.12566
-8.40467
-14.7406
-15.7456
-10.5711
-9.90746
-9.57473
-10.7146
-13.6179
-10.7025
-12.3887
-11.859
-13.4356
-13.0942
-14.0781
-13.8265
27.8471
27.7984
27.6661
27.7421
28.0096
28.0259
27.9056
27.9324
27.7452
27.613
28.121
27.8993
28.0638
28.0602
27.6922
27.6129
27.7766
27.9428
28.0728
27.6765
-2.68601
-2.78958
-2.26189
-1.8658
-4.50215
-4.55615
-4.88642
-5.67436
-3.86024
-2.62088
-2.33056
-4.50417
-4.78715
-5.27965
-5.9655
-5.89915
-3.80964
-5.42658
-5.22658
-4.23633
27.8576
27.7213
27.8034
27.8456
27.8349
27.8667
27.7919
27.9154
27.9826
27.9989
28.0691
27.7668
27.9295
27.9167
28.0176
28.0023
27.8801
-5.5286
-5.42862
-5.60759
-5.83612
-5.73887
-5.42943
-5.2122
-5.57186
-5.69009
-5.83496
-5.2451
-4.88889
25.8013
25.6228
26.1769
26.1839
25.9331
25.8844
25.5268
25.7378
25.982
26.1372
26.1804
25.8113
25.6247
25.7433
25.5534
25.7435
25.5391
25.8116
25.8785
25.5367
25.7833
19.1971
18.7607
18.8511
19.2703
19.3274
18.4936
18.8881
20.5282
20.706
20.501
19.795
19.4457
19.0646
18.9855
19.0412
19.7092
19.6232
19.5983
5.22863
5.51968
5.55599
5.09359
5.4066
6.10755
5.72827
5.70453
5.51346
6.67166
6.43704
6.70785
6.53294
5.61462
5.32346
46.1384
41.0637
35.2413
36.6693
43.0148
41.0704
52.4926
37.9088
44.7827
39.6873
52.086
51.8667
47.5952
40.8896
-4.57711
-4.42634
-4.6691
-5.04083
-4.88666
-5.09164
-4.67509
-4.63647
-4.85774
-4.68435
-5.25351
-5.16861
-4.94344
-4.40328
-4.59747
-4.90496
21.7847
19.7432
21.3703
19.5813
19.2474
19.6296
19.9424
19.9984
20.8446
21.2424
23.6871
23.1823
22.2096
24.5129
25.0939
22.5288
23.5502
27.0339
26.9854
26.576
26.6813
26.7784
26.8427
27.06
27.1022
26.5361
26.6588
27.0106
27.0314
26.9908
26.8593
26.8184
26.9846
26.7826
-20.6737
-18.2156
-17.9794
-22.3231
-17.6913
-22.9788
-29.5167
-17.3172
-20.5707
-20.7145
-19.6932
-21.4564
-23.2871
-18.4343
-18.7568
-18.9191
-15.0147
-16.1441
13.904
13.5807
15.1793
14.8661
14.139
12.8755
13.2535
14.7882
15.2933
14.8985
14.6338
14.9513
13.2631
13.0191
12.4054
14.2077
13.0719
13.6739
12.6777
14.1676
13.474
13.2532
-4.72679
-5.49245
-5.25886
-5.13943
-3.42727
-3.73069
-2.00893
-2.15238
-3.72552
-4.07183
-4.51808
-3.04575
-2.29109
-2.15111
-2.15053
-1.97224
-4.35421
-4.8568
-4.12434
-4.23557
-4.69203
-4.45255
-4.2493
-4.60728
-4.89432
-4.71993
-4.76272
-4.0555
-4.08195
-3.97248
-4.15289
-4.12988
-4.82141
-4.8189
-4.72649
-4.43108
-4.06856
-4.48493
-5.18549
-5.27256
-5.32733
-5.44054
-5.63726
-5.77047
-5.26238
-5.71241
-5.04562
-5.3752
-4.96162
-5.6436
-4.75429
-4.97638
-4.79973
-5.6559
-5.08584
-4.88912
-5.601
-6.97677
-6.20677
-5.96497
-8.59354
-5.7715
-2.06369
-9.64816
-9.53603
-0.803301
-3.03164
1.05921
-5.68919
-0.920041
-5.76415
-4.1461
-7.9439
-7.68121
-4.56846
-3.26846
0.888331
-2.28324
1.43826
2.73127
1.2717
0.660857
1.08598
1.63283
3.13543
3.00905
2.12321
1.42799
0.673007
1.00378
1.10123
0.816921
1.78568
1.62852
2.70189
1.52727
0.831779
1.44037
-10.2112
-9.77786
-9.85439
-10.0615
-10.1962
-10.1856
-10.4504
-10.7241
-10.0991
-10.7849
-10.3275
-9.98885
-10.1201
-10.0118
-10.1289
-10.0242
-10.1113
-7.16133
-7.30009
-8.5238
-8.1189
-7.90818
-8.15389
-8.3196
-8.05101
-7.50288
-8.22365
-7.67942
-8.23359
-7.89864
-7.96703
-2.67614
-2.82259
-3.06427
-3.21108
-3.54869
-3.66967
-2.70756
-3.66641
-4.04201
-4.4353
-4.43303
-3.05339
-3.30143
-4.04898
-4.13036
-2.99096
-3.38055
-0.0137505
0.0234081
-0.144185
-0.0304487
-0.0766772
-0.112924
-0.12038
0.0210251
-0.0394591
-0.100971
-0.198951
-0.353214
-0.530539
-0.312107
-0.144559
-0.216429
-0.279123
-0.322415
-0.303183
-0.424641
-0.215312
-0.125079
-0.49364
-0.0354213
-0.212971
-0.268748
-0.183764
-0.41773
-0.283553
-0.114921
-0.303658
-0.0229475
-0.0937884
-0.272237
-0.513317
-0.165175
-0.259154
-0.453416
-0.152633
-0.267535
-14.5184
-17.1687
-20.4416
-21.7725
-20.8947
-22.0677
-14.7087
-18.5426
-20.2063
-13.9964
-15.8128
-17.0785
-19.9114
-18.5037
-17.7128
-17.6343
-15.7558
-2.3584
-2.34063
-2.72948
-1.58621
-2.18113
-2.95435
-3.22726
-1.50922
-1.78965
-2.68238
-9.40886
-9.47879
-9.48628
-9.76397
-9.2312
-9.23001
-9.39586
-9.78634
-9.66757
-9.67278
-9.54351
-9.26907
-9.41547
-9.16079
-9.05479
-9.31287
-9.35543
-9.42507
-8.96875
-8.95178
-9.02877
-8.6787
-9.09362
-8.85867
-8.8462
-8.79835
-8.46899
-8.58581
-9.09062
-9.20277
-8.87593
-0.480663
-0.327759
-0.630123
-0.404876
-0.63546
-0.917554
-0.729289
-0.242862
-0.1849
-0.431776
-0.768717
-0.785145
-0.213779
-0.226589
-9.23172
-9.21383
-9.42875
-9.43251
-9.12861
-9.31883
-9.38184
-9.22556
-9.26072
-9.17292
-9.16158
-9.32434
-9.12483
-9.03606
-9.42985
-23.8088
-22.4723
-21.4644
-23.6944
-23.4286
-23.3645
-23.7161
-25.8303
-25.1259
-25.2507
-25.0052
-26.8963
-23.1493
-23.6628
-24.5938
-23.3648
-24.1904
-25.5992
26.9083
26.9041
27.1533
26.5133
26.625
26.5858
26.6929
26.5169
26.8297
26.8088
-10.7923
-10.885
-10.9299
-11.1399
-10.8249
-11.1098
-10.7353
-10.8146
-10.6281
-10.6937
-10.7744
-11.0146
-11.1298
-10.943
-11.1484
-10.7143
-10.9177
-10.8897
-10.7699
-10.964
-11.0126
-10.8773
-2.64
-2.66883
-2.31124
-2.32312
-2.36424
-1.30995
-2.21564
-2.60757
-1.51261
-1.59611
-1.41938
-0.886761
-1.39347
-1.62046
-1.39773
-0.73508
-0.906776
-2.23247
28.5439
29.5196
30.7642
29.4582
28.0759
30.5302
28.6925
29.6403
25.968
27.8719
29.4285
26.6202
26.9298
25.6791
24.4236
27.5391
25.3715
24.2333
25.2958
30.217
28.4022
27.028
24.7482
29.5154
31.3349
32.044
31.7388
36.5805
34.9853
32.5683
35.8629
28.4425
28.263
36.6591
38.1828
33.9388
37.5278
27.6938
27.8104
27.8602
27.6689
27.7834
27.6715
27.8535
27.7886
27.6317
27.7751
27.5731
27.6062
27.8399
27.7704
27.778
27.8462
27.1682
22.971
22.535
24.8281
25.9575
27.816
25.8527
25.9479
22.2494
21.5611
26.1406
24.0627
25.5777
22.8265
24.8558
22.695
22.4393
23.6041
24.1597
23.1632
23.8331
24.8987
24.7146
24.0568
23.2924
24.9206
25.2973
24.7657
19.8573
19.4516
21.6393
23.0442
11.2607
10.2889
20.2432
20.1321
10.9893
13.2162
15.6781
15.7077
17.3057
14.8058
12.485
10.3584
25.8061
24.9788
25.3347
25.8489
25.0553
26.3664
25.9656
25.1724
25.1827
27.9939
27.5659
27.2395
26.6949
25.5955
26.7254
26.1635
27.196
26.5882
25.9485
27.484
7.5346
9.02084
3.97329
0.984632
2.0517
4.60478
12.2869
3.78841
7.44872
7.34984
1.39195
6.23668
6.81759
3.97424
6.97737
13.1848
13.1368
11.6886
9.82315
8.07235
16.8429
14.0097
14.0929
11.3986
15.1914
15.021
15.144
12.8408
11.4271
12.4862
12.3714
13.1425
13.4968
26.8519
26.9072
26.6907
26.5854
27.2863
27.2657
26.7877
26.6246
27.4488
27.4474
26.8535
27.152
27.4286
27.3893
27.275
-11.3857
-11.07
-11.929
-12.3336
-12.9522
-11.512
-11.3418
-13.2012
-13.2248
29.5483
28.676
27.6825
27.6345
28.3515
27.7582
29.975
27.4326
31.1876
29.7565
27.5621
29.4008
30.0287
30.3855
30.8491
26.6723
26.9691
28.7348
30.8843
29.5583
27.1519
28.0165
1.49923
2.22444
1.62897
-0.345692
0.713307
1.67779
-1.45824
-0.0631316
0.181635
-1.78724
-0.734948
-2.77423
-1.91887
-2.83051
-3.32131
-2.52795
-1.35987
0.197838
-3.7096
-0.887791
25.6271
23.9867
28.6195
24.2214
26.066
32.5912
29.8897
26.062
29.8157
25.2728
27.6713
33.4752
31.3065
32.0703
35.5145
28.8831
28.2642
26.5145
30.9795
24.9514
28.1264
25.908
29.651
34.1174
35.0221
33.0513
-9.55815
-10.6306
-10.1542
-9.44194
-10.2919
-11.0605
-10.2032
-9.93366
-11.1539
-10.1758
-10.4047
-10.2016
-9.81549
-9.46112
-9.36877
-9.99392
-9.59376
-10.2436
-9.98378
-9.41747
-9.53137
-9.70357
-9.59713
-9.85571
-9.546
-9.7735
-7.62657
-7.12034
-7.75677
-8.04565
-7.55152
-7.74126
-7.42811
-5.50037
-7.43926
-4.8402
-7.29174
-6.75602
-6.02471
-6.987
-7.92863
-7.93358
-7.23262
-6.92704
7.98054
7.4588
4.07874
5.98349
4.73879
2.80167
-0.574497
4.10919
4.43922
1.91967
-2.81656
0.838748
2.35683
22.9733
23.7659
24.1032
22.7592
24.4276
24.2038
24.6093
23.7684
23.8814
22.9003
23.0551
24.9451
24.3347
-13.6028
-13.574
-14.2913
-13.9293
-13.8514
-14.3647
-16.0029
-15.2674
-16.9018
-14.6832
-14.871
-14.3141
-15.8992
-11.5193
-9.93443
-9.81861
-10.3282
-10.3688
-11.105
-11.0031
-11.3201
-9.84543
-10.0286
-10.5543
-10.0484
-9.71006
-9.91049
-10.0001
-8.99886
-8.92681
-9.05638
-8.88044
-8.9303
-8.90164
-8.82314
-8.84468
-8.72271
-9.05693
-8.87539
-9.14376
-8.89947
-8.90381
-8.75616
-8.74862
-11.57
-11.0928
-11.1584
-10.9357
-11.1975
-10.8881
-11.0266
-11.6295
-11.274
-10.711
-11.2905
-11.4704
-11.2622
-11.9518
-4.73706
-4.63954
-5.38763
-3.74652
-5.23393
-5.73783
-5.62902
-5.22997
-4.74138
-5.13303
-5.47793
20.4286
21.9756
21.0802
22.2366
21.4986
22.3564
21.4839
20.7378
21.9054
21.0189
22.3273
20.1917
21.7216
29.963
32.8677
35.2837
43.6545
41.4859
29.8974
47.1957
46.3602
33.3986
38.998
31.5021
33.6572
42.1649
46.1018
48.8762
37.0026
38.8509
35.7006
45.4045
43.374
41.5178
38.5492
30.9256
31.0222
30.8333
29.605
29.3959
28.1143
28.5647
28.8934
28.3313
27.2603
27.3781
17.4758
16.8214
16.5704
16.1582
18.5836
18.0821
16.4558
17.8338
17.0859
16.1983
15.388
15.6263
17.297
18.7262
18.9062
16.2141
15.6752
17.8667
15.1154
29.2082
29.4941
29.3853
29.384
30.1232
29.95
29.7388
29.5803
29.5746
29.9786
30.7289
30.4464
30.8767
-13.1619
-8.85318
-6.16481
-10.0314
-8.27807
-3.70814
-3.91644
-3.7739
-2.64313
-6.94091
-4.65913
-13.1546
-16.523
-7.15895
-4.10717
-10.5907
-8.0454
-16.6411
-11.4599
-17.3416
-10.2685
-9.31625
-9.23514
-9.51266
-9.47356
-9.06659
-9.21293
-9.55148
-9.95753
-9.40448
-9.43708
-9.95
-9.68754
-9.27406
-9.48378
-9.25076
-9.34244
-9.03529
-9.56162
-10.6092
-11.7011
-9.42622
-9.11076
-9.09445
-10.7794
-10.2209
-10.0526
-8.93714
-9.98843
-11.202
-12.7208
-10.7083
-10.487
-7.73605
-6.35874
-8.90597
-8.10537
-6.76739
-9.38355
-10.4509
-7.56642
-6.56133
-7.86511
-6.73804
-7.93115
-7.1096
-2.7314
-3.14616
-3.43731
-3.32415
-3.54367
-11.8913
-14.4324
-11.4895
-13.7379
-17.1887
-11.8797
-15.0004
-19.0743
-18.5265
-22.5238
-23.9031
-20.4739
-19.4513
-20.455
-15.3929
-1.73582
-1.56621
-0.697225
-1.6046
-2.5513
-1.7644
-2.98495
-1.59996
-2.38434
-1.12681
-1.06422
-1.93128
-2.01016
-2.23213
-0.984035
-1.93458
-2.20501
-1.63133
11.7453
9.59049
4.92504
12.3919
-2.04668
-12.8341
11.9494
1.66482
11.0935
4.91894
5.91754
-25.7046
-19.4501
-38.4228
-1.02578
-1.70773
-4.24856
-15.7521
-7.58337
-1.3433
-18.2709
-17.7402
-17.9892
-16.6452
-16.8691
-16.0045
-15.9378
-15.7765
-16.8532
-16.8863
-15.3989
-15.856
-16.3246
-15.6211
-14.3634
-12.7135
-13.0954
-15.1781
-10.8718
-11.5385
-12.9486
-15.1938
-12.7296
-12.0661
-14.9588
-13.7105
-9.88609
-10.6303
-9.88712
-10.2335
-10.4931
-10.6985
-4.78875
-5.63075
-4.30026
-7.02334
-10.6073
-5.45035
-13.7888
-12.8686
-13.7452
-13.7772
-1.88053
-1.94308
-2.60232
-3.92757
-7.78345
-8.92159
-9.58856
-10.1638
-3.85944
-7.05222
-4.47553
-4.62741
-6.07752
-7.71129
-7.79464
-7.1828
-4.37376
-4.27966
-5.39834
-2.63007
-2.59422
-5.80785
-7.91718
-4.82499
-3.73938
-2.55411
-1.98154
-6.22733
-3.85954
-4.2256
-5.54317
-4.24592
9.82856
10.4169
7.46272
7.8299
10.5772
8.66077
8.12987
8.82034
9.27587
8.82398
7.76062
8.24402
8.46781
7.44859
10.2559
-13.5579
-9.23858
-10.0627
-12.0314
-13.8209
-12.032
-8.55275
-12.4407
-7.56441
-7.0721
-8.21289
-7.94182
-8.04141
-8.38567
-8.34498
-7.46273
-8.50858
-8.56084
-7.733
-8.69826
-9.51679
-9.14104
-8.07329
-8.19156
-9.26802
-9.11818
-9.24485
-8.33995
-8.95908
-7.91919
-8.40015
-7.57772
-8.89876
-8.48027
-9.0264
-8.28924
-7.98309
-8.53173
-10.7334
-10.5148
-11.0575
-10.8137
-10.5254
-10.9078
-11.5471
-12.5996
-12.0278
-11.5905
-11.2062
-11.684
-11.6774
-12.4986
-12.0625
-11.2881
-11.6615
-12.0078
-0.89665
-0.73061
-0.706876
-1.08845
-0.830208
-1.16047
-0.788871
-0.84191
-1.08536
-1.20322
-0.919986
-1.30515
-1.70318
-1.75514
-0.842587
-1.18462
-1.16291
-0.912055
-1.61229
-1.55845
-1.04989
-1.07229
30.1034
29.7591
30.2287
29.8547
29.2959
29.9454
30.4623
29.3799
29.5059
29.395
28.8142
28.5287
28.7431
29.7211
29.231
29.0047
-11.8685
-10.2764
-8.87118
-10.027
-14.7728
-15.391
-11.2336
-10.1699
-11.8724
-15.1639
-12.9644
-12.0973
-14.1664
-12.0035
-15.4956
-13.1603
-14.7952
-16.8571
-4.75039
-3.77665
-3.23508
-4.28588
-4.42359
-4.62783
-3.85152
-3.36996
-3.8097
-3.77113
-4.95303
-4.88322
-4.88011
-5.10947
-4.10864
-4.69222
5.44468
6.12169
7.62029
6.10361
4.94403
6.86814
5.31284
7.29484
7.80439
5.98282
6.56427
6.41192
6.17023
7.61016
5.65493
4.14049
5.51669
4.09329
4.52332
5.47152
3.33065
1.6978
-0.642736
-0.770982
-2.35568
-2.53402
1.2756
-3.53499
7.08471
5.63557
-5.2578
0.561451
5.25447
3.90173
-2.3572
1.15497
-12.9457
-12.7197
-12.3768
-12.0596
-11.7268
-12.0188
-11.964
-11.9221
-11.5561
-10.5917
-10.5245
-10.9529
-3.33826
-3.23805
-3.44633
-2.95482
-3.23888
-3.35191
-3.44457
-3.57054
-2.81464
-3.09041
-3.08412
-2.98397
-3.53513
-3.20889
-2.78391
-2.92111
-3.2794
-11.3703
-11.6044
-11.4872
-11.4272
-11.5281
-11.793
-11.6031
-11.121
-11.5016
-11.275
-11.2202
-11.494
-11.7758
-12.1142
-11.5893
-11.6347
-12.0466
-11.3674
-5.21659
-7.05429
-6.65147
-6.0165
-7.37169
-7.32474
-5.3511
-6.4324
-7.87878
-6.09779
-5.84197
-5.98781
-5.77301
-6.9237
-5.87605
-5.63007
-6.06724
-6.6908
-7.60633
-7.00891
-8.62719
-8.5225
-5.905
-6.03451
-7.65042
-7.40911
-6.33635
-6.72051
-8.12219
-8.01138
-6.8464
-6.65954
11.4093
11.0985
5.58471
8.43188
10.3573
11.1398
10.992
9.71968
6.7928
9.65474
6.53744
9.09213
8.96963
7.5028
30.444
30.0875
28.9495
29.1471
29.1825
29.5236
30.189
29.9086
28.8688
29.0738
28.9726
29.6398
29.4638
30.0076
-1.2969
-1.11776
-1.45826
-1.53991
-1.45848
-1.65549
-1.3276
-1.5199
-1.28851
-1.57665
-1.78845
-1.66011
-1.27385
-1.42623
-1.7306
1.07503
1.36243
3.79578
3.93178
0.796718
2.0933
2.09812
2.37638
3.67088
3.84843
0.149011
0.465977
0.991898
1.47547
2.45867
1.23209
2.14865
-12.2671
-11.2013
-9.3785
-10.4284
-12.3648
-10.2965
-9.41269
-11.9327
-10.7346
-11.988
-10.1062
-12.8686
-11.7858
-12.5002
-9.27022
-9.83238
-10.9973
-13.1381
-11.8775
-9.45433
-10.9004
-9.23825
-8.11416
-7.92089
-7.77288
-7.81383
-8.27629
-8.62094
-8.17061
-8.29459
-8.37108
-8.95455
-8.6981
-8.61665
-8.26963
-8.92376
-8.51016
-8.18997
-8.2645
-8.08245
-8.18876
-7.83531
-7.85473
-7.44205
-7.88376
-7.78714
-7.31603
-7.35618
-7.68004
-7.59078
-7.77523
-7.22485
-7.5214
-11.0209
-11.2984
-11.2196
-11.3717
-10.7407
-11.5162
-10.4437
-11.3919
-11.4794
-11.0705
-10.1562
-10.4011
-9.56642
-9.54728
-9.68795
-10.7985
-10.334
-10.1207
8.55519
8.6749
7.73513
7.41378
4.72395
2.85709
9.68572
8.98312
2.03396
9.92859
7.41595
6.16839
3.35107
6.06757
8.43606
9.02442
7.71586
3.85069
5.15638
4.59126
4.17073
4.18982
5.42335
6.12397
4.9086
7.80678
7.61957
7.81515
6.04578
7.4798
6.57505
5.17437
24.131
23.5157
22.8517
23.8648
25.0557
23.7504
25.2701
25.3231
23.9058
23.1555
22.2437
23.8022
22.6266
26.4218
25.4507
-4.33674
-4.15101
-3.70755
-3.50498
-5.17189
-3.76171
-4.1842
-3.48532
-4.41908
-3.83922
-4.43096
-3.28797
-3.36677
-2.31162
-3.67041
-3.42632
-8.57649
-8.43897
-8.5115
-8.19703
-8.02329
-7.56216
-5.7812
-7.38246
-7.63524
-8.66795
-5.70811
-7.02163
-8.14429
-29.6914
-23.2668
-21.4705
-15.6616
-29.7338
-35.1247
-10.8962
-18.4248
-14.9599
-20.5489
-22.0116
-26.7401
-24.1773
24.6521
23.4871
27.6398
25.1078
26.5294
27.5927
25.9089
23.3213
21.3848
22.1478
24.947
26.1717
25.143
17.4513
19.3737
25.5894
24.7465
19.011
17.4873
19.8991
5.41624
5.31377
5.26893
4.29276
5.32258
4.57246
4.22952
4.94245
5.34408
5.31469
4.70553
5.64666
5.41439
4.92476
-2.36554
-1.97447
-2.08235
-2.31574
-1.93159
-2.38071
-2.56423
-2.62305
-2.33548
-2.45775
-2.61217
-2.78437
-2.56643
-1.93874
-2.07735
-1.80106
-1.77552
-2.27661
-9.45285
-8.99661
-9.16708
-9.58253
-10.1351
-9.63824
-9.4197
-9.36318
-9.01878
-10.0958
-9.4041
-10.024
-10.4729
-9.1781
-9.33272
-9.10222
-9.543
-9.74977
-9.93805
-8.85086
-3.24457
-2.74782
-2.63162
-3.00371
-3.02886
-8.82339
-8.59332
-10.1094
-10.0879
-9.214
-9.48965
-8.95981
-9.19763
-9.37777
-9.36615
-8.73726
-9.7047
-9.07191
-8.89476
-9.80333
-9.55588
-9.79761
-9.53217
-9.64757
-9.36212
-10.3348
-10.0332
-9.63084
-10.1395
-9.92897
8.99547
9.30107
9.32461
9.06802
8.49946
8.41155
8.77446
9.21071
9.71764
9.70257
9.15371
28.5167
29.2123
27.6241
27.5352
28.6604
30.0243
30.3068
28.6648
28.6976
31.5587
29.9249
33.3943
28.6015
28.1255
29.8802
10.0313
9.23455
6.35808
7.71937
7.14339
8.53123
6.93639
5.51416
5.6749
6.96926
8.56132
7.62142
9.02643
5.78396
6.33024
7.75942
4.14998
4.19866
6.22281
3.73266
2.49978
21.2206
22.1686
21.4509
20.4157
21.2026
20.4487
17.7223
16.8494
15.277
15.8731
16.3149
16.0088
18.8662
18.8985
16.9869
17.6946
19.8676
35.4305
37.5798
38.0038
35.4699
34.5883
36.2947
35.5089
36.2187
37.5568
34.814
38.4852
35.2882
34.3247
40.9544
39.5419
39.4445
36.1114
39.1429
40.1179
36.5559
-3.97742
-3.22757
0.47945
-0.668217
5.83877
-3.49591
-1.96265
3.28062
1.3156
3.80215
9.03248
8.43394
3.17613
6.66887
-13.3238
-13.1634
-13.1295
-12.9437
-13.2115
-13.3863
-12.9122
-13.1166
-13.0939
-12.6906
-12.8495
-12.8223
-12.9277
-12.7023
-10.5083
-10.1718
-10.0876
-10.4038
-9.97921
-10.4761
-10.007
-10.5143
-10.2445
-10.3548
-10.2266
-0.225515
-0.145182
0.0243539
-0.226969
-0.3699
-0.167862
0.000403892
-0.0293568
0.0130162
-0.222615
0.0594397
-0.00312925
-0.112964
-0.156079
-0.31566
-7.22471
-7.41996
-7.24653
-7.31432
-7.31107
-7.59082
-7.7136
-7.39047
-7.63477
-8.33824
-8.34568
-8.19448
-8.21745
-7.65225
-7.48708
-7.39425
-7.68109
-7.5584
-9.3944
-12.3837
-9.33697
-10.633
-9.48378
-12.2302
-10.8712
-9.80395
-9.03488
-9.62836
-11.517
-8.79895
-10.6453
-11.3031
-10.5493
-11.5335
-9.78459
-10.3672
-7.96974
-10.8803
-10.0475
35.5423
39.181
37.7141
39.5225
35.5309
39.7585
40.6621
37.9741
42.1036
43.791
40.3087
32.2134
33.0811
37.4873
32.8552
0.837565
1.09689
-0.788126
-0.368125
1.34044
-0.355615
1.8588
0.283158
0.125641
-0.356124
18.2151
18.169
18.8091