/*--------------------------------*- C++ -*----------------------------------*\
  =========                 |
  \\      /  F ield         | OpenFOAM: The Open Source CFD Toolbox
   \\    /   O peration     | Website:  https://openfoam.org
    \\  /    A nd           | Version:  10
     \\/     M anipulation  |
\*---------------------------------------------------------------------------*/
FoamFile
{
    format      ascii;
    class       surfaceScalarField;
    location    "4";
    object      phi;
}
// * * * * * * * * * * * * * * * * * * * * * * * * * * * * * * * * * * * * * //

dimensions      [0 3 -1 0 0 0 0];

internalField   nonuniform List<scalar> 
146459
(
-1.78988
2.57089
-1.16579
0.384779
0.813954
-1.0451
-1.55873
-3.20661
4.54375
1.23375
-1.06825
-1.32441
-2.30049
-0.773183
1.92216
1.15152
-0.562624
-1.73787
1.72842
-2.27571
-0.497805
6.81728
3.13308
-8.55524
-1.39513
-2.38485
3.81486
5.38727
-0.320013
-2.73103
0.785111
1.17273
-2.49189
-1.97701
3.2764
1.32357
-25.5831
44.7693
-22.2783
3.09205
-27.407
17.7915
-15.9675
27.19
9.2765
-16.255
-20.2116
51.4016
9.76346
-33.975
-13.4149
-21.6578
7.66565
20.4647
-6.66059
-4.52762
48.9462
22.9201
-18.0658
-2.00969
-26.8648
-33.5926
38.7996
-10.6012
13.3822
-29.6458
-37.3455
8.67855
39.8046
-6.28126
-20.1411
12.1886
4.85747
22.7585
8.08254
22.7347
-3.92989
-26.8874
-0.0694166
22.3035
-14.1516
15.8458
5.96063
0.928299
-9.64514
10.0165
15.4745
18.5931
-17.6771
5.04467
-11.157
21.2583
8.49176
27.1995
-16.0582
29.0404
-40.1817
13.2424
4.31196
-7.98427
21.3902
-13.4754
-27.9724
15.8174
-11.1909
-3.71102
8.37137
-24.0718
21.6693
15.6449
-9.57641
14.545
31.5977
3.90407
-13.8325
8.63302
9.0462
-3.32725
-3.89529
0.553546
6.669
-6.18431
-3.44127
6.29832
6.91502
-6.41021
-4.4001
0.632681
4.1091
2.17324
7.58997
3.22687
-10.1842
-16.9923
-16.4315
19.1347
14.2891
-16.6893
20.4487
-3.87939
0.119909
-5.00496
-0.246931
-11.4374
-14.6993
-1.39167
-0.901355
-11.035
-5.06095
10.0938
6.00218
-3.67141
16.3058
7.81434
-14.9576
-2.85103
13.9293
-14.1139
-5.84873
-22.5908
4.14495
14.7744
-15.7115
-7.12615
2.85912
-16.1788
-3.11182
-8.17592
9.65734
-10.5733
-20.4445
-10.4336
-8.39748
-2.30096
18.1279
-7.42942
-8.18193
-0.76831
0.552765
-11.6985
21.6433
-12.2458
-8.45578
0.679791
-0.405947
9.35048
-1.06872
1.16999
-9.45174
-5.41019
6.30489
3.13365
8.9984
-8.94616
-3.1859
-5.63218
8.76584
11.0424
0.428527
-12.5396
-0.802909
1.52964
8.27167
-0.333477
-11.3403
12.8437
1.2807
-9.79833
-13.9036
1.40224
-12.9564
0.297754
-0.558119
-0.0263383
0.286703
-0.671755
0.614081
0.355428
0.231571
-0.48706
-0.416266
0.340617
0.179452
-1.07819
0.913765
0.0409326
-0.465378
0.117121
0.321918
0.241016
-0.474823
1.74681
0.192131
-0.953262
-0.98568
0.0496343
1.30203
0.395144
-0.00894724
-0.428478
0.035446
0.147738
-1.93202
0.643924
1.40521
-0.386205
-1.36636
-0.385405
0.494028
0.535301
-0.108943
0.0983566
-1.1173
0.632742
-0.360877
-4.01123
10.0491
6.61715
-12.655
-1.93921
-16.8045
5.40584
13.3379
-15.9111
9.96062
-9.62864
-23.0869
-6.24149
15.658
-9.41647
-11.993
13.4802
3.91862
7.68166
-23.5195
6.20923
-10.5528
9.01539
-6.41729
2.46276
-5.06087
-0.616436
5.5873
4.04453
0.137384
-1.26063
-5.29404
7.95803
-1.61449
-6.20616
12.1904
4.96735
-9.19972
6.44643
5.12753
-6.90938
9.37215
0.327571
6.91361
-8.50181
-9.55511
8.2682
13.2398
-8.27243
0.0042296
-6.54357
0.874471
-6.29766
11.9668
-8.99091
-4.61321
7.06055
6.0414
-7.00064
9.85996
-8.90072
0.145652
5.89575
-7.49646
-7.39966
15.7706
-0.297681
-9.2678
0.574574
-6.59534
-4.18633
-10.6482
7.33809
-10.7555
1.95595
-0.0561598
-8.66427
-2.03506
-7.62754
-1.69642
-4.54069
6.44969
-9.53654
5.49575
-17.0371
10.7601
-0.339817
-0.560368
9.25623
9.99659
-13.1651
-0.991444
4.39532
12.8374
-9.8691
-7.36365
10.6255
0.454185
-6.6844
4.39838
19.0646
6.50632
-12.0013
10.5941
-5.09919
-9.90845
20.8131
6.17972
4.91483
-23.0608
11.9662
4.7138
-10.5353
5.19464
-10.1489
16.7585
6.97614
-15.3792
-8.35539
-5.62176
16.1579
6.22239
12.1169
-3.89124
-13.8474
9.39008
-0.406575
-2.00736
6.73541
18.8125
-2.22147
10.7909
-8.97602
10.9925
3.20245
-2.07812
23.8041
-6.07611
-6.35396
-7.64555
-2.09255
16.0921
-12.6518
-8.85927
15.1571
0.0524131
-7.69796
-12.6633
0.0639414
-1.23557
-24.0781
16.4544
6.39432
-19.2861
11.6562
-7.9512
12.253
-20.1536
-9.96404
22.1664
12.3903
-27.4798
-5.06401
2.42623
-3.07216
-18.4521
-2.55381
-12.2307
-3.50484
-5.27173
-24.1668
-13.5714
-10.6715
-6.83089
11.681
-0.930464
-3.28214
-7.46837
-5.34118
0.121774
5.00704
0.212363
5.54976
-13.3976
2.50662
-9.41404
8.53305
1.00276
8.96948
-12.8338
-1.5027
4.03351
9.15015
-13.4772
4.69596
7.27859
-0.93873
-2.45241
-10.0861
7.41674
-3.34017
11.1806
-3.14984
7.00177
12.7119
1.28113
10.1691
12.9789
0.0998313
-6.0919
8.11453
-2.12246
-8.27991
11.0943
-2.71452
1.32231
-15.6941
-14.997
-1.36253
13.4778
2.88171
11.7133
-25.388
10.3507
16.5693
7.63476
-16.0895
-7.42946
8.38731
15.6114
0.205301
1.19759
9.04324
0.853442
11.4474
3.22804
-0.00846532
17.439
-10.556
21.9949
-6.36007
5.48819
11.2913
-10.4194
-8.731
4.73714
-2.36621
-18.2491
6.03138
3.48667
-6.99546
-10.3853
22.8689
6.33605
-8.59436
-4.18292
-6.20235
-3.84604
1.52734
-16.9106
19.2293
20.8439
-21.4626
-3.22737
3.96488
13.4971
3.38195
16.6008
-1.83792
-13.2355
5.2963
19.0512
-7.74672
5.78419
12.0274
-13.8467
15.5504
3.91445
-19.4203
-0.0445013
-2.02203
17.5724
-13.8238
15.9004
-1.32575
20.8391
-14.2171
19.4899
-15.0315
0.785402
6.0534
9.53134
-16.3701
4.37717
6.68974
-10.2815
8.12359
7.03041
-10.7768
-2.8522
17.4484
-6.47257
11.4003
-8.19914
0.0638438
6.6259
9.59519
7.41873
-12.1886
9.35141
-4.58151
-2.51665
15.2956
-5.36018
0.167202
6.8632
0.945929
-1.73421
10.5411
6.7931
14.8176
11.7598
10.0435
-4.81389
-16.9893
-4.42092
8.75003
7.43064
5.62257
-12.1868
0.752778
17.8943
-6.46026
-6.83577
3.39897
-6.18353
11.8061
-16.6065
-4.93344
12.2842
9.25574
11.117
-6.80622
-20.9173
15.6944
-9.01432
-15.3011
8.62101
1.69323
7.94163
6.05954
-5.90207
18.461
-20.6344
8.07538
7.2786
2.29759
-16.9409
7.36473
6.33594
11.5876
-10.6449
-5.99836
-17.1082
6.03695
17.0696
-20.5669
3.53303
11.0356
-4.57789
-6.00493
-9.98413
-14.3596
-7.32651
5.60488
6.80554
-10.1128
11.9408
11.4661
0.265813
-0.14434
1.54763
-5.12805
-6.5002
10.0806
-8.59308
16.1777
-11.4541
9.8591
12.276
-11.4754
-4.09594
6.96897
-10.5961
-1.34468
2.16656
-4.70946
-11.1547
9.21224
6.65191
-9.65445
4.94499
8.93662
-2.07828
8.40608
-15.2644
-0.717831
7.38945
-15.5851
6.11742
6.85302
2.18025
-1.64382
-0.814918
-6.97258
0.511292
7.27621
-8.93204
-1.43017
9.54729
13.9749
0.375538
-3.77745
-10.5729
14.5251
-9.48224
-2.37308
-0.837396
-0.115166
-6.04298
0.156735
6.00141
-8.73781
8.62264
-4.09249
-6.69425
7.86467
2.92208
8.05204
-12.1445
-8.7202
-0.0176055
12.2096
0.861453
0.691265
-13.7623
0.0474631
12.1621
0.767906
-8.62665
9.14444
0.496675
-8.94985
9.20803
-0.016119
1.37776
-7.64868
0.227942
3.89153
-6.3841
-10.6441
7.78144
-12.7582
15.6208
-10.4438
-0.20031
-4.66704
17.3804
-4.93189
7.23186
-7.49151
-9.26717
9.52683
-3.73911
10.971
6.01913
10.9928
-10.0511
-6.96085
-4.42462
8.16373
-5.26106
-10.3942
-3.08783
1.32251
7.04016
13.635
-16.9846
-3.69055
-11.4841
13.8573
3.56187
-18.8741
-13.4079
-1.16404
-19.0842
9.2381
-0.90305
5.54575
-6.16194
1.51924
-9.24089
8.33784
-8.04098
0.289926
-5.31195
-5.96774
-2.07325
-8.37292
10.9311
2.44394
-22.6159
3.47397
1.29515
-6.00281
0.0350754
-10.4909
6.93204
-5.93704
3.38004
-9.40273
-0.892308
-5.04473
7.69416
-2.4561
-11.2323
5.99419
5.08664
1.0745
1.53302
3.07846
3.07026
-8.60482
-0.855122
3.93359
-6.74288
7.06443
-1.17666
8.48237
-12.155
3.04128
-3.86909
5.30544
5.62807
4.51294
0.100335
-6.23246
-1.93518
3.36712
1.14126
-2.09334
-4.36672
5.3188
-0.582256
-0.95162
2.67514
-0.594337
-1.42483
3.43666
-1.4175
-2.71551
3.60904
-1.48787
-4.78696
9.26495
-7.1935
-0.930317
-3.85664
0.136556
4.0148
-6.24469
-1.35767
-1.70683
1.63968
-1.58534
-0.354588
2.63715
-4.08594
-5.92964
5.83309
-17.4489
17.5455
-21.0643
2.88219
12.2525
-2.33318
-10.2661
-8.46511
16.9847
-10.9784
-8.33948
10.8255
-5.74987
11.9091
-4.28878
14.033
-3.91113
9.41886
10.149
-2.43519
-18.6923
4.39914
-15.7145
-0.76027
-0.974131
-7.49165
-18.489
11.9395
-6.51852
7.02241
-12.4433
12.1974
-1.01818
-2.17451
6.57365
-16.4454
-4.8479
8.35956
8.68571
1.52462
0.903506
-1.72498
-0.703144
-0.63064
-0.0386609
2.19392
0.272866
-0.159173
0.707429
-0.586918
-0.390116
-1.02098
-0.486137
1.89724
0.735367
0.289018
-1.4145
-0.285612
-0.0622439
0.70103
-0.797959
-1.4982
0.694685
0.0127444
0.909576
-14.0003
13.27
-13.9019
14.6322
2.53463
-3.69109
-12.8439
3.75646
11.542
-20.1272
4.82881
6.06925
13.8657
-16.1785
-5.01532
7.54995
13.5773
-6.60557
-0.902483
-0.392176
0.601937
13.3675
0.000288604
13.8654
11.5422
13.4733
6.52692
-6.54194
-14.7608
12.4106
8.89211
-11.2824
4.91368
-0.173227
-2.58984
-3.82201
-8.34894
-4.69246
-9.17978
7.50101
-7.41697
4.82964
-3.04044
12.9553
-11.4062
3.28242
-4.83152
-8.52994
14.5973
6.88792
-6.85692
-5.49504
-14.7084
-3.55471
9.87715
-6.59473
-9.68504
-4.13184
6.3999
-10.0393
-4.33821
-10.7266
-2.47839
-5.28464
-0.137533
7.90056
10.4628
-4.67202
-1.66469
-4.12605
-6.85906
1.84626
2.62894
2.38386
-2.09398
8.46363
-6.36965
4.86893
-6.96291
-5.94713
0.530138
18.3459
-12.9289
4.52782
-10.8625
0.387532
-12.3575
-5.51601
18.4036
-9.78658
-5.6268
3.0559
13.1209
-10.4064
-14.695
11.9805
14.4058
-6.80098
-22.8681
2.67512
1.41884
2.81154
-5.41026
1.17988
3.72172
-4.41267
2.10979
6.62164
-5.95336
-4.97439
4.30611
0.609668
5.48034
0.531627
0.569035
2.85217
0.781136
3.50962
1.23648
-5.16941
-1.47733
-2.96701
-0.20918
-0.501043
-3.83823
5.54869
-1.20942
-1.70888
1.98897
0.906785
0.222515
-6.29871
1.1635
-3.22373
-2.68181
-6.57035
5.41393
-5.66346
1.27277
1.24203
-6.97287
-0.842991
-0.871083
-4.85628
-5.34295
-3.68118
4.05212
-7.86986
-5.24707
5.47586
7.64107
-0.738814
-2.4387
-4.69234
8.43031
-4.23334
-4.93578
-4.61779
5.00194
8.04616
8.50299
-4.23974
-8.49659
-0.483783
4.36898
9.79273
-3.54049
-8.69094
1.4445
3.10116
10.6646
-0.186773
-7.68965
3.52469
-1.12203
-10.8074
-11.6777
7.01519
2.83504
-6.36493
1.71907
5.29663
-7.84179
0.826081
-6.13762
3.91065
3.94605
-14.5741
-0.294218
7.99108
6.87722
-5.16602
-0.919617
-8.48845
8.41822
-1.40976
-3.09868
-3.90978
-5.16162
7.44222
-10.1962
4.74039
-5.29099
-10.0713
2.3887
-3.16781
6.07575
-2.71517
9.01451
8.51994
-4.35348
-5.57621
-2.03442
2.71257
-11.9366
3.98718
0.0891836
7.86019
-5.58011
-7.27606
9.2631
-1.48998
-6.89969
6.57922
-2.76717
-8.16554
4.17563
0.369176
-5.02277
1.77664
3.33532
-4.79943
-5.80346
2.78445
-9.05657
-14.8917
12.2321
15.2021
-12.5425
-2.41325
-17.2259
8.37809
11.261
-26.1478
9.84469
13.8898
8.95584
-13.2857
-12.896
-9.69863
-7.49331
0.56114
-12.1384
-1.07817
12.6554
-0.931132
11.1504
-9.65811
12.6724
-13.3435
-0.260081
-11.2026
9.83026
9.7504
0.684364
-1.73821
-13.8378
-15.8482
15.3478
10.3451
9.48058
-11.6159
15.5938
-12.6201
-1.03763
2.08141
-2.33574
-1.3155
17.4183
-14.0214
0.494039
-2.47094
2.32996
-0.353063
0.100585
0.393453
-1.8343
-0.513519
-0.482057
2.82988
-1.73371
-9.11072
-2.78382
6.67909
5.21545
0.0332905
-1.42051
-7.7235
4.01497
-2.84376
-2.90492
-0.597087
4.09853
-7.13335
4.25215
0.0973811
-1.14611
-5.95395
-0.00727954
-0.239653
0.640386
-3.62433
-0.240159
2.08806
-4.50392
-0.659463
6.74146
3.35253
3.9173
8.33725
-15.1733
2.91873
8.54519
-11.7778
7.14991
-18.5796
-5.62793
11.3241
12.8834
-15.7786
0.0527638
-2.85381
-6.37877
-12.0671
16.9911
1.45481
8.28571
-4.77752
-9.88696
7.73004
-7.42633
8.03354
-0.179352
16.4546
-9.33347
-1.49171
-0.952622
-16.221
10.9388
8.61578
-24.3321
14.8355
-15.9639
7.4681
-14.6309
0.348466
17.5926
-2.70429
10.4204
-5.07789
12.25
21.5652
4.4869
3.84134
-7.12826
-5.40401
12.4359
5.52772
-8.24724
-9.71634
3.70605
4.93731
3.7925
8.7265
-3.35943
-1.52573
3.39682
8.43084
-1.1934
-3.80548
8.39571
-2.6588
4.30044
-5.11386
-12.9237
6.3598
7.6027
-9.54175
5.6451
9.12088
-2.17785
-1.41531
7.02589
7.03231
2.8941
1.47298
6.69131
-10.2069
-2.69431
-0.849826
-17.6043
-13.0919
-4.11752
2.04129
23.6227
-21.5465
-17.4758
0.137839
13.2204
-15.4427
-3.67584
1.64281
-1.8692
-12.8216
16.7321
-8.68435
6.95299
-7.45658
-11.496
3.50981
11.2592
-4.57136
-14.4324
7.74452
18.2835
3.07502
-10.0993
-7.74006
13.202
7.70819
9.79259
-6.79905
-10.7017
15.0204
-7.56449
0.252309
-19.5928
8.48731
3.3654
-6.72517
-14.283
14.086
-2.93847
-4.65181
-10.3693
-16.0222
-10.1697
6.65692
5.99964
-2.48683
7.748
-12.909
-5.00874
-10.3061
13.2758
3.02429
-5.99395
11.5067
-16.4471
-5.36578
2.94652
0.0567368
8.50348
12.495
3.72729
-13.8977
14.2203
6.33437
0.140015
-6.28974
7.61389
16.161
-17.62
-6.15488
14.68
-6.9261
11.9623
-2.93842
1.97049
10.6626
-0.138035
16.2878
-4.82696
4.70019
15.5455
15.4223
1.62846
12.3044
0.898312
16.545
-1.89778
16.747
-7.5544
-7.06286
3.02863
11.5886
-9.00801
-2.14625
3.59986
0.569846
-10.197
0.619132
10.7127
-11.5319
1.38907
5.53489
-9.38956
1.70843
-0.27637
3.92622
4.64537
10.6524
-9.76289
-6.36586
14.0399
-5.98356
-2.63989
-0.766112
3.05857
-7.62362
-1.41852
2.36409
-9.5025
-1.41202
-7.75584
-4.3743
2.10445
-4.09601
-4.10026
2.82584
8.82669
-7.55227
2.76853
-4.062
-2.80679
-1.76191
5.0758
-5.95379
-7.314
2.66333
-5.95749
-11.5914
24.6111
-6.75772
-6.26199
4.1788
-15.6674
-0.102817
5.16086
20.5188
-21.5008
-1.16677
27.7783
-5.29931
-21.3123
6.06232
14.6538
-32.5433
11.8273
20.0614
-16.0673
4.16116
18.8678
1.58218
19.1755
5.50446
-1.92445
17.7038
3.39607
16.4529
1.68402
14.2008
19.6399
-7.4576
-7.35527
32.5167
23.1961
26.5844
-15.0719
7.27709
-2.09622
-9.99031
4.80944
-10.2968
16.093
1.48089
-12.0201
4.13227
-1.71384
9.60165
-4.9348
-12.4791
18.9747
-1.56075
14.3765
-6.14237
-13.1689
-1.31256
3.66896
-10.8924
3.87544
4.9207
18.5041
-18.6855
-9.80883
-9.80581
18.0131
-7.10738
4.84568
0.949143
-2.2847
-10.9651
-5.19922
-0.847462
-3.88838
-5.90651
-8.89064
-15.5796
8.06993
-2.29616
-7.62403
-11.8439
-4.54026
-6.56547
-2.59928
-10.5205
5.49574
-9.42424
4.04382
0.293793
1.73814
-7.17832
3.72673
7.49542
0.932441
0.903746
4.57737
-0.145925
-1.64699
3.53259
1.33858
-3.27652
-0.919946
7.9232
-3.65075
1.30667
8.04055
-4.70643
-0.97825
-2.35586
2.87806
7.59992
-2.43743
-1.51704
6.8303
-1.21796
5.4907
-0.987872
-11.8715
-2.47983
15.3392
-8.60584
9.91365
-2.29568
-14.0499
6.57949
-2.08137
9.55176
-1.53056
-0.0374851
-7.03779
-2.33778
-11.0643
-10.0073
10.0204
-2.49289
-12.0001
-1.8714
11.8517
2.01982
-5.90505
-20.1449
-3.71376
0.285905
-6.44132
5.59714
10.778
-9.93379
-19.4743
-0.659609
13.6926
-6.64391
7.65407
-14.9818
13.9716
6.99662
-19.5456
-12.2047
-3.04119
11.5322
-5.53073
-6.2895
-10.7389
0.305058
12.8197
-3.55878
-9.566
16.4878
-4.38682
-11.796
-5.19786
15.2457
2.77187
15.1652
-3.87517
-2.66345
11.0796
-12.803
2.25192
8.03222
-12.9476
-0.714701
-11.9544
2.18379
10.4853
-7.00292
-0.0750775
6.36329
-2.04021
6.11692
6.89105
6.23389
6.98661
15.1501
8.06219
-9.36904
2.19399
-6.11615
-5.25338
7.70738
4.53261
-13.0295
-2.52501
10.3011
-2.77332
21.9815
0.188887
-4.90844
-17.2619
13.7471
-1.30875
9.54314
5.12488
-11.325
19.9472
-3.77022
17.424
-8.0629
-5.59084
20.9528
-12.0556
-12.6674
-22.3582
29.001
-6.45387
-5.3901
-13.0565
-3.9116
-7.78775
-1.64589
14.5585
-13.3174
4.22095
-8.51264
9.57415
16.3625
5.82019
6.61999
-15.9865
8.48927
-5.3675
-18.8946
8.2756
2.23702
-19.6601
5.67003
-11.4959
0.486613
17.1894
-17.0147
6.80975
10.6915
-16.7347
14.738
28.9164
-24.8016
-21.3683
17.2534
-1.68336
16.8848
13.715
-3.78246
25.6691
-9.50941
-12.3772
11.9586
-25.8548
29.5989
-15.7027
-16.8669
4.02391
13.7005
-31.6577
16.2738
6.09996
8.42154
-40.3763
-19.5287
8.76181
-14.9072
24.8253
0.130669
11.8633
15.5121
-27.5061
-13.3974
11.3385
27.9514
-26.3035
6.77372
-25.0972
10.3206
-10.5432
51.0267
-34.2826
-1.68226
-15.0619
25.345
35.7752
-10.0935
-20.6139
31.5371
-22.6897
11.7665
-41.4708
-13.4257
50.6281
6.25404
-4.00741
-33.5727
-3.89068
12.5951
6.54993
-41.8347
-19.4112
-22.2125
27.154
14.4697
-17.273
4.95367
-7.0919
24.063
-30.1831
26.11
-19.9899
27.4224
9.23573
-5.71576
-28.1083
29.8167
-0.228298
-36.324
6.3692
-24.8145
-0.706362
3.30844
-24.2502
-17.8373
21.488
3.91563
31.0751
17.8353
-30.1943
3.73424
8.9988
-1.43221
-11.3008
-11.7167
11.2392
4.21174
5.6181
-12.6776
-4.65721
-8.56092
14.4542
1.97214
-7.86539
11.1129
-16.2378
-3.43597
-4.28306
-2.36348
17.8858
-3.61658
8.33232
-1.01413
5.38214
10.0862
6.48217
11.1233
-3.5331
14.142
-6.53308
-1.95674
4.38335
4.10648
-5.5989
2.03011
-2.96429
1.797
-1.31468
-6.08122
0.685112
-0.844856
-0.428174
3.61374
-2.50045
3.81028
-1.24292
-2.99553
-1.71786
1.10904
4.22255
2.7588
-0.666379
-4.89595
2.19205
7.08725
-2.4107
-0.455137
0.489545
2.65223
-4.45645
3.17658
-2.23517
0.626126
-1.56753
0.246416
1.27598
1.65418
2.50735
-3.26073
-2.28105
1.14156
1.3859
-2.00887
1.59461
2.30575
1.84066
-1.59913
-4.0185
2.23841
3.05607
-1.55171
5.52707
-1.09661
-9.60027
-10.1199
23.6588
-3.93859
-14.9448
-17.7954
23.14
5.61844
7.83767
-0.252042
-13.2041
-0.358135
-8.96827
6.36416
-8.64643
-12.3266
1.87682
24.7285
-14.2787
-0.890263
12.2225
-6.15381
16.0863
-10.2906
8.36921
-14.7751
8.01142
-16.3695
7.46781
-6.01148
-7.26739
15.1557
-9.11079
11.1107
7.78769
5.32027
2.97835
-4.24157
-5.76376
7.18665
-16.4644
0.166919
7.70695
-12.3367
5.65446
-3.64151
-2.02986
0.0169193
-1.1931
7.94768
-1.10012
-0.979062
2.27343
-5.60576
4.31139
1.09366
-4.25993
2.18721
7.04081
-7.7696
-2.91272
8.12114
3.68051
-2.24196
-4.562
3.12345
2.14043
2.63374
-0.86593
-1.02743
-3.7124
-3.41813
-1.70773
-5.96035
0.30026
12.9951
8.90149
-4.78812
-17.1085
-2.13754
6.7088
8.42382
3.7434
3.02055
9.78089
-1.85287
-4.18462
2.92547
6.36219
-14.0758
-14.9916
3.9597
20.8128
-1.89998
-0.0124365
-13.0792
5.29875
-9.25209
6.87881
10.1019
2.75235
-6.49205
4.28139
12.5293
11.5119
-11.3341
-2.07779
19.753
-3.28299
17.0051
13.9055
-0.107703
-30.8029
-0.358978
23.8478
-6.48379
-37.0326
9.96215
13.8662
13.2043
2.81869
-13.3199
-26.5313
38.2475
-10.4213
-25.0075
26.0417
22.168
39.1776
-35.6934
2.1942
25.3497
11.6337
-10.6456
14.5305
-4.24392
8.44669
-19.2
-25.802
19.2029
8.79332
12.3259
-14.2801
16.1132
-20.9864
12.2137
39.1777
10.8861
10.3033
-5.07615
18.5767
6.17554
-15.7891
7.97406
27.018
-8.60711
5.1439
-11.7063
10.2604
20.0225
-3.29373
1.89071
2.62968
30.4482
3.0979
7.22652
-25.7479
15.4235
10.4999
24.8636
-32.2656
-1.00041
20.3846
-12.1577
30.1907
-20.6913
34.5352
-16.0991
6.42756
45.6732
3.5873
-20.5622
-28.6984
20.7966
18.5064
-18.9185
23.7736
29.7125
-23.2954
44.5326
0.0376802
-2.04039
31.6137
16.0999
-44.5693
14.6305
27.8984
-18.0018
16.5815
-43.149
33.1395
-11.0458
-2.17807
13.8398
18.0508
18.9189
23.4356
11.0925
-2.75011
24.7972
10.5497
19.4617
-18.0853
29.3868
3.32893
18.093
-1.5596
13.8475
0.268013
15.5933
-3.88836
-11.973
-4.7068
19.6406
-14.6658
-3.45717
20.2897
-21.5393
12.2768
0.78118
-16.5152
5.84611
12.407
-2.65983
20.3962
5.09047
-4.28794
13.2352
3.32956
17.8686
-1.86683
11.828
-14.9351
-16.4669
-12.9772
9.88601
19.5581
2.76322
-18.3133
-0.916787
15.2902
3.484
-0.761516
12.5677
13.8706
0.863176
5.66243
15.2253
-21.7107
-1.09268
3.34082
0.53326
12.8367
2.73582
10.3733
12.7041
6.0276
9.50208
2.64044
-6.54765
9.81672
15.6586
-4.85562
7.93916
-8.19245
5.10891
-0.0281682
-3.79237
-1.03508
-9.53303
8.35096
-7.25668
8.43875
-3.0362
-11.8134
5.31657
-6.0436
10.007
4.38751
-4.70742
-1.36435
-6.04311
1.90483
-7.51742
11.6557
4.51859
-0.554658
-2.42939
8.85281
-6.66072
12.1705
-12.1865
5.30714
-1.31304
-9.33041
-6.6485
-8.99492
1.2513
6.60979
-0.588442
-0.870971
-5.15038
16.5338
-17.4415
-5.64719
4.2936
-0.390359
-5.84527
8.11727
-6.3938
-7.16054
5.43706
3.66327
1.75473
2.69928
-8.52017
-10.3085
6.63376
12.1949
1.68961
4.27198
-12.3554
7.18644
-14.017
-9.1787
5.92887
-6.29133
9.54117
5.42259
-7.41485
-7.32976
2.98399
1.81376
2.53201
8.6828
-11.7406
6.76774
4.68008
-2.76502
4.64122
5.11051
1.83705
5.3993
-8.59271
9.79065
3.44329
-0.249357
-5.15556
-3.12012
16.3924
-8.11669
-26.5583
1.07746
14.0105
11.4704
-1.64648
-26.3818
1.46995
-16.0376
-2.59935
13.4814
8.08101
-0.927733
-23.1909
-20.5865
9.97754
11.6864
0.17135
-22.4043
-5.37705
12.2345
-17.9458
9.96936
-19.2547
1.48026
17.7188
2.21738
0.537509
-20.4736
7.56997
11.2107
-1.06194
-6.44497
-4.62896
5.67465
5.39927
-13.1082
-8.02964
14.6928
-12.6242
12.9704
7.22383
1.71431
-12.1212
-12.9104
11.013
1.87754
-14.2505
-4.66983
18.1464
-0.506144
-3.38817
-17.3273
16.0865
-23.3794
3.12065
16.8706
-1.95711
-24.7467
3.32438
-19.85
0.565598
-15.9801
14.4309
3.17988
-21.1523
0.494157
-22.061
-13.7716
-18.0644
5.31373
13.4843
-0.733589
-7.93121
4.95701
-15.0902
-1.69571
7.05366
4.75308
-10.111
13.2915
5.82779
-20.815
1.28475
11.0575
0.949179
7.10962
1.22879
19.2638
9.9598
-16.1458
-13.0778
12.9483
7.60694
-1.2915
-17.2023
11.6219
18.5288
-4.93248
-2.31003
9.38262
-12.5607
11.876
2.82031
7.49081
-4.67781
2.14401
16.7479
4.22723
-15.789
5.47095
-10.4722
4.30688
17.7872
-4.34717
13.3111
5.67452
10.556
16.5047
-10.3129
28.174
5.11518
10.0356
0.653198
-15.8039
10.2437
-11.6903
6.56175
-4.69689
1.13259
13.808
-2.82694
8.16562
3.46607
-0.33401
-14.8224
-8.6627
-3.38013
13.1754
8.39151
-4.06411
2.6546
-6.982
5.63291
7.97777
-4.33331
-9.27737
11.4374
2.74753
-8.55199
0.736125
12.055
-4.81339
13.1519
-4.02427
-7.57488
2.37825
2.58306
6.02736
-10.4508
9.65375
-6.63792
8.24215
-1.0609
7.89334
1.59289
-6.13468
-3.35155
3.23812
2.86293
1.7923
-4.51381
2.87137
4.88056
-1.2498
-1.67112
4.04831
8.2403
-9.42568
-2.42848
10.1224
-4.82258
-3.77449
10.1956
-3.45159
-2.96955
2.5775
-5.95924
-0.392758
3.37238
-2.34511
-2.27707
-6.48158
7.42548
3.84919
2.00214
4.3443
-7.19101
4.55862
-6.95862
-6.81926
-4.74874
4.50376
7.06424
-8.92647
0.918098
1.18911
-2.3024
-2.98807
0.541734
6.51603
-8.32571
-0.492727
5.57311
-8.44053
9.38346
-6.44102
16.5179
-4.36634
-7.5482
6.95251
-8.57526
2.54085
-5.30507
5.81655
-8.01898
-0.0582335
-0.248494
-4.08353
-9.66207
-8.83694
0.18412
0.077552
13.3601
-0.433215
-11.272
-1.65494
16.3932
15.6893
-19.7964
-12.2861
3.99671
10.8761
1.52035
12.063
5.29385
14.3294
3.03911
-1.67917
13.0226
12.1829
23.9154
-12.1774
-3.56564
-8.17231
0.466744
-1.80287
25.2515
-15.0325
-0.622962
16.1222
-15.1469
22.5904
-14.6457
-11.5104
-1.04245
21.83
23.1218
-17.0046
-6.51568
0.398403
0.575748
21.5036
10.7776
-13.4149
-14.3673
15.5264
-1.70966
-1.02073
13.4204
-6.43505
-14.7263
15.0814
13.0719
-0.438865
3.03418
-15.6672
1.54956
14.1487
-2.62645
21.4388
16.5739
-23.0176
-14.9951
-2.95246
10.5172
13.8741
4.98107
8.64035
11.6655
2.29618
-14.4006
-1.77574
14.9908
11.8488
12.8171
3.04502
-23.0284
-19.036
6.96164
11.0296
1.04481
-12.4467
-0.850129
-5.73917
1.15654
17.1825
-6.4902
14.988
-0.134142
-11.8089
9.8739
10.0952
2.84723
-12.9978
-18.5133
5.00385
20.4711
-12.6787
-6.68471
16.0343
-9.96565
-2.15486
2.26717
-1.70964
1.59732
2.10923
-3.99493
-0.269161
2.83516
-2.18092
1.45499
0.798491
4.30384
-3.07427
0.42511
0.939522
-3.18902
-3.88017
2.11601
0.594938
-2.28583
1.94168
3.97858
-3.80425
-2.04001
4.78018
-0.274773
-0.81613
-2.10564
3.19654
3.255
-1.23677
-2.293
2.23589
-0.0712602
1.09037
1.622
-2.85708
-0.945843
1.81788
0.413774
-4.50762
-3.59138
-10.3123
14.6566
-15.5003
11.1559
7.78702
-0.150123
-17.9492
0.921653
-3.16569
10.0311
-4.49747
20.0758
-24.7698
-1.1133
5.31995
20.5631
-13.704
-1.51849
-9.54724
1.62813
-5.37867
-11.7498
-3.1784
-15.6839
14.3648
-18.4891
14.1974
-12.0681
-20.1251
18.1648
-11.2282
-8.45509
20.319
-9.93975
-4.11601
-8.35256
-0.732653
-2.14297
2.99563
-17.0762
5.728
-19.0122
5.49798
8.00729
-13.5053
11.7103
-10.747
4.53469
2.34307
-3.27259
8.93681
-1.29029
15.3436
2.41005
-15.9153
-9.71598
1.37905
1.80498
-18.5623
1.86719
14.8902
-17.1988
3.5479
15.4559
-21.9739
20.2443
1.84096
-0.111317
-2.22065
0.828332
-20.5816
-2.77301
4.45498
-20.7643
0.792481
-13.6744
15.932
-1.32067
1.76712
-10.1624
1.17436
-18.4104
-15.0241
13.6187
14.3248
-15.3711
1.14166
-1.17105
-18.7649
-13.0783
1.11064
7.21827
1.49797
-9.82688
2.40965
0.195964
-13.4948
10.8892
16.696
9.3583
-18.953
-7.10128
-9.46532
14.6865
11.4748
-6.85514
8.91113
-2.69504
0.63905
-9.08503
2.51622
-0.286323
15.1392
2.72042
-15.45
-6.4957
12.5499
0.736169
-4.51144
-9.89649
10.3253
-2.86921
2.44042
2.41564
-12.1162
-3.24879
8.3952
4.21189
1.5125
-18.0498
-7.21665
8.18713
-9.67934
1.15644
-4.02465
12.5475
-7.80959
-24.6252
22.7554
2.4934
21.4636
-13.8115
-10.1455
-12.6632
2.53009
4.50584
5.62723
-13.1242
-15.603
16.064
-22.1252
1.19148
-7.16741
10.7355
16.1575
-19.7257
-3.74114
-2.26984
-6.96077
-9.20321
18.6574
-8.66129
-10.8953
12.5959
-7.57294
1.44173
1.1803
0.352011
-12.1343
2.41928
-8.5845
-11.1228
-7.34661
6.17861
-7.49538
8.66338
-10.7214
6.37815
-3.00336
0.163402
-10.7532
12.1652
-1.57535
-9.49828
-1.05972
-6.06694
-3.54071
15.7863
-6.10755
6.41876
0.274125
-15.8775
9.49585
-21.7376
8.48012
13.5316
-0.848819
6.8326
-15.4821
7.30795
-18.91
3.79437
-12.8393
-6.60751
-11.3357
-0.274407
4.94421
-10.3254
15.2649
17.0983
-16.3978
6.4984
44.4445
-26.6474
-1.85274
-15.9444
1.05721
20.6203
22.767
-31.6666
-2.38306
21.5908
12.4589
-18.4958
-39.8182
-23.8811
12.0465
12.8918
-16.0734
-9.66041
-25.3177
12.9028
10.0318
-11.6592
8.11091
-21.7694
0.240192
-30.3952
7.9674
34.2437
9.68829
-13.6773
16.0355
-30.3937
27.2487
16.0478
-5.59103
-16.6918
14.9415
9.39028
-24.0916
23.9397
-6.28405
13.2684
-14.4002
-2.20011
1.79116
17.5477
-13.7485
1.79558
13.5521
-6.60813
3.18544
-14.6495
18.0722
15.5729
-17.9626
-1.38774
4.92602
-7.01393
17.6608
-11.336
-0.18373
-10.5501
22.0699
-1.62896
-16.3152
-2.64262
22.0937
-5.3203
0.593188
-13.2355
-10.0071
19.0073
-9.18388
3.14985
-14.7859
-19.0265
16.8561
2.667
3.99829
15.2438
-21.9091
7.63034
24.209
-29.1724
12.9682
-9.18954
9.95252
16.6812
3.60049
-1.27447
21.6689
7.83329
6.51365
-25.9629
11.0575
-16.1202
-6.01741
9.16297
8.11549
1.22248
18.4842
-8.6492
10.2578
9.56767
-13.3118
-6.48679
17.9671
8.43052
4.03623
11.5394
6.91889
-10.0278
-0.972754
9.50279
1.94004
2.23114
-15.237
11.0659
15.3298
-6.65242
6.91798
-15.5953
-4.51254
-0.978152
20.8205
-12.8073
3.49592
-2.10134
11.4127
4.11536
-14.9826
-4.41228
14.953
-15.0533
-9.95262
-3.82455
12.799
-16.6208
0.0158068
21.4027
-0.923116
-10.0064
-10.4731
2.15882
2.19142
17.0524
17.7299
-9.24968
-9.40333
4.48698
15.4017
12.9551
4.01096
-12.8507
-0.169826
-0.4613
-12.7249
17.1971
-4.20165
-12.2519
15.9922
19.4265
-11.7499
-17.683
17.2057
13.9194
-13.257
-13.7205
13.9359
9.89697
-19.5172
-4.31573
-7.13692
11.9748
9.09805
6.27272
-3.51266
-15.4158
3.99267
12.0927
-0.669584
-17.1594
-11.7752
13.5188
2.23988
-14.3781
18.411
-4.37081
-11.533
18.1437
3.63252
12.3349
14.0911
-12.9441
-5.51783
19.5641
-9.77138
4.29839
4.33788
20.6664
-5.44018
22.5725
-14.6021
-9.29267
-2.12539
-3.75898
15.1771
-14.1951
13.7169
-8.81449
8.98973
-6.44291
-2.54683
2.99572
-0.772492
12.784
-15.0072
-0.0196432
12.0051
8.3878
-4.22344
-6.28975
1.46898
6.03908
-2.31189
-5.19616
8.2722
-6.80322
1.82929
2.02816
-11.8721
9.07145
-6.29592
8.30443
-7.72721
-16.2349
17.6661
-5.89792
-17.0232
-14.1491
14.9374
-14.2048
-8.71632
-5.02591
-2.94661
-6.17658
-13.1916
-6.43091
1.6118
10.7568
1.37784
-13.7464
-16.3444
14.2684
3.68775
0.470779
-0.592816
-16.2224
-1.38667
-0.152167
15.8073
-1.32333
10.6935
5.59979
-20.9594
17.0675
-1.70794
12.7783
-11.691
4.51244
15.3429
-2.73903
-16.1119
3.50809
16.0891
-0.74621
-16.5598
-1.88661
18.2943
-0.733897
12.1889
5.26791
-1.40467
-24.8226
-8.67242
2.24935
18.0198
-1.30991
0.357703
1.15796
16.1279
14.8916
-19.0353
-1.09357
15.2389
15.8105
-16.5392
-18.6077
-17.0708
24.841
10.8375
-5.16169
-27.7264
14.2804
8.63437
-2.67271
-23.0325
5.51605
31.1185
-11.7936
-26.669
-9.32634
15.8323
20.163
18.5566
-30.9482
4.91396
7.47759
-5.2832
29.3559
-27.4849
-4.65121
5.46717
-23.2039
0.890137
0.463517
-19.2083
-4.45918
32.2516
-26.1177
-5.67031
22.5951
14.5704
-11.7513
29.0632
24.2278
-34.12
-1.85905
4.91761
-20.679
-3.44689
-22.4893
1.28913
4.27381
-7.37981
-4.73998
7.84598
-3.00344
2.30421
4.97303
-1.63446
0.00334186
-5.74869
8.0248
-0.152164
-9.5071
8.27528
-7.43818
-9.67754
8.84044
-3.1259
5.17456
6.22662
1.89546
1.53753
-9.12787
-5.31819
6.4127
0.57372
-20.5887
13.6023
-5.59678
5.47117
6.53831
10.5215
-0.631504
4.15345
-14.0435
13.8019
6.72423
-19.9524
-12.3218
12.5039
16.6341
-16.8163
-1.4114
-10.9104
-11.7936
9.59139
12.7237
-13.205
9.6473
3.52307
13.3132
-8.60995
2.02099
-4.31886
26.4142
18.6416
0.760466
-2.47002
-13.4181
15.1276
-1.74543
-11.7477
14.2536
2.17017
1.33334
-16.7924
13.2889
-14.0595
14.4842
-14.0337
12.897
5.90788
-11.38
-7.946
-5.83978
-3.94565
-15.2138
5.1
7.45052
-3.91713
2.15295
-5.68634
-17.4082
10.825
-2.22262
-19.1027
-9.78542
-1.51974
-13.1197
-2.6877
-14.0459
1.26186
-14.8644
-11.2113
13.171
-13.6486
5.37807
-4.90039
-6.93704
7.22833
12.8797
8.48962
-2.50898
-19.6293
1.55258
9.44167
4.17321
-8.23681
19.467
-2.79698
-7.68916
9.24175
-11.5965
1.56694
12.0197
-1.99018
-5.41351
-13.8722
-17.2786
9.3561
9.85171
-13.9639
-14.1847
18.2969
-0.306695
10.1584
-0.555123
10.3936
1.53438
-11.3729
2.13316
-16.6522
9.06625
8.97093
-7.64352
8.75955
-0.749852
11.2144
-8.93018
14.8406
-13.4573
0.308992
12.8329
-13.5714
0.429438
4.07058
-6.5512
17.3212
-0.700743
-12.4628
12.3322
0.831353
8.05881
-3.48688
-0.00501373
16.1462
-12.1023
0.0266415
-0.25851
16.9706
-0.56589
0.603589
7.76421
12.6773
-4.37472
-17.7794
16.571
-13.6481
14.8565
-10.9015
-2.88983
-3.98806
4.75527
-1.72391
13.5396
-25.0443
1.85093
9.54521
-21.2613
-14.6844
-10.7814
17.0276
-1.49094
17.3343
-13.7931
-6.43104
11.1809
4.42953
-18.4607
9.53026
29.4786
-7.97619
-30.9663
9.46393
25.7903
-14.7724
17.9063
4.28327
-6.74893
-15.4406
12.0026
4.87351
1.03019
1.77343
-31.011
-12.7024
13.07
11.635
-6.55124
-1.86789
14.9227
-19.8982
6.00312
12.2824
11.0033
-11.7269
-11.5588
-5.93403
14.4007
3.81571
-21.3298
4.02753
14.4192
2.88311
-9.89715
-0.429339
18.5281
-12.5474
1.96343
-7.94411
23.6033
-7.09407
2.01891
11.4007
0.248883
-23.3765
8.30904
-2.84241
13.5228
4.9054
11.2386
-22.3896
11.3999
6.77432
-8.08319
-17.5445
-16.6336
20.9536
13.2245
1.53102
-10.7664
-8.32828
0.0513518
35.1736
-22.2486
-12.9764
32.5086
-11.9508
-20.5064
5.2136
15.7424
14.2176
18.1375
19.5847
-21.5137
-6.39498
5.66009
11.201
13.0211
-8.47962
-11.0214
2.27113
12.7386
-3.98831
-11.5235
-1.87697
2.37902
16.6807
-4.69359
-12.8919
0.904805
11.3817
-6.22447
-15.7544
17.2517
6.10035
-7.5976
6.76692
-20.6434
-1.87792
-1.9621
15.4342
-4.97148