/*--------------------------------*- C++ -*----------------------------------*\
  =========                 |
  \\      /  F ield         | OpenFOAM: The Open Source CFD Toolbox
   \\    /   O peration     | Website:  https://openfoam.org
    \\  /    A nd           | Version:  10
     \\/     M anipulation  |
\*---------------------------------------------------------------------------*/
FoamFile
{
    format      ascii;
    class       volVectorField;
    location    "4";
    object      U;
}
// * * * * * * * * * * * * * * * * * * * * * * * * * * * * * * * * * * * * * //

dimensions      [0 1 -1 0 0 0 0];

internalField   nonuniform List<vector> 
75457
(
(4.9289 -0.410819 -0.829335)
(5.02125 -1.34863 -1.21396)
(7.32028 -0.0253512 -0.622317)
(9.59946 -0.338637 -1.06189)
(4.24817 0.988161 -0.0217684)
(4.47179 1.15319 -0.134361)
(5.36875 -0.68041 -0.702299)
(5.1124 0.430264 -1.10537)
(10.7436 -0.611497 -1.15243)
(10.5809 -0.381067 -0.947159)
(10.8274 -0.195147 -0.96567)
(4.88865 0.312842 0.223107)
(5.03853 0.116368 -0.183404)
(9.71365 -0.184502 -0.403617)
(11.4187 -0.668296 -0.345798)
(11.5085 -0.629711 -0.281733)
(11.6391 -0.617234 -0.462887)
(11.4747 -0.681425 -0.556219)
(11.5797 -0.657117 -0.316923)
(11.603 -0.553797 -0.384519)
(11.4701 -0.628134 -0.498183)
(11.6487 -0.641872 -0.346623)
(11.5607 -0.69221 -0.34004)
(11.5784 -0.737092 -0.368271)
(11.668 -0.674353 -0.350528)
(11.4004 -0.804421 -0.532616)
(11.3043 -0.825351 -0.558954)
(10.5627 -0.895284 0.608325)
(10.4299 -0.836597 0.701908)
(10.5315 -0.88294 0.569499)
(10.5815 -0.814749 0.503665)
(10.3807 -0.840067 0.627387)
(10.3764 -0.817299 0.621478)
(10.7024 -0.717268 0.504346)
(10.6793 -0.708597 0.478659)
(10.8312 -0.634862 0.659916)
(10.7617 -0.732092 0.549732)
(10.353 -0.826323 0.698596)
(10.4165 -0.801871 0.662753)
(10.678 -0.649644 0.469506)
(10.6994 -0.642304 0.492506)
(10.6802 -0.658507 0.487151)
(10.7955 -0.680269 0.648734)
(12.2483 0.474049 0.332351)
(12.0785 0.488031 0.215424)
(12.3402 0.404264 0.366996)
(12.3471 0.385002 0.396306)
(12.2346 0.408181 0.302605)
(11.4635 0.148854 0.10211)
(11.6906 0.182896 0.158234)
(11.7198 0.178532 0.142651)
(11.5389 0.155133 0.142652)
(11.2581 0.16592 0.0317003)
(11.6176 0.179255 0.138364)
(11.7365 0.185983 0.188724)
(11.7476 0.179697 0.165594)
(11.3666 0.179948 0.0898617)
(11.39 0.176945 0.0775813)
(11.4445 0.146536 0.062134)
(11.2321 0.160865 0.0218557)
(11.3133 0.17526 0.0677632)
(11.5377 0.147887 0.105721)
(9.9512 0.0562131 -0.306772)
(9.95664 0.0665553 -0.332033)
(10.1422 0.0877828 -0.260659)
(9.9405 0.0613204 -0.299807)
(9.96103 0.0558131 -0.2807)
(9.91065 0.0347807 -0.276465)
(9.93029 0.041603 -0.214574)
(9.82316 0.0276722 -0.23815)
(9.83768 0.00866519 -0.235488)
(9.7835 0.00166272 -0.247811)
(9.9632 0.0484207 -0.222905)
(10.1338 0.0894972 -0.260622)
(9.94072 0.048448 -0.201709)
(10.1147 0.0797607 -0.228905)
(10.1031 0.0716792 -0.216965)
(-0.205366 -0.0835079 0.357863)
(-1.11525 0.142658 -0.65639)
(-0.0367404 0.687364 -0.836926)
(1.20911 0.398754 0.69397)
(-1.49118 -0.0942932 0.0595907)
(-0.0230669 -0.567698 0.068266)
(0.0310674 -0.607919 -0.961372)
(-1.00821 0.785795 0.18536)
(-1.35305 0.788914 -0.22511)
(0.77008 0.515088 -0.754321)
(0.0796588 0.509093 -0.388911)
(1.86677 0.0617403 0.0901417)
(2.46599 0.414353 0.547127)
(0.218753 -0.297747 0.284832)
(-0.473641 -0.277746 -0.55788)
(0.568954 0.56293 0.842752)
(-1.0515 0.270835 0.4541)
(12.1843 -0.28631 -0.0480443)
(12.5185 -0.295081 -0.0790916)
(12.5165 -0.299595 -0.0785597)
(12.5476 -0.295552 -0.0724555)
(11.9851 -0.28709 -0.0234358)
(12.2138 -0.289263 -0.0541338)
(12.2459 -0.2885 -0.0288486)
(12.1087 -0.276086 -0.0369561)
(10.0172 -0.00997729 -0.0199011)
(10.0274 -0.00927285 -0.0168164)
(10.0207 -0.014946 -0.0222341)
(10.021 -0.0194303 -0.0156057)
(10.012 -0.0175105 -0.00675914)
(10.0235 -0.0174112 -0.00594372)
(9.85508 0.000695212 -0.0204898)
(9.93356 -0.0144568 -0.0150517)
(9.94506 -0.0181974 -0.0109474)
(9.90191 -0.0187963 -0.00167071)
(9.87093 -0.0259156 -0.0230471)
(10.7522 0.109542 0.0664636)
(10.7888 0.132863 0.185556)
(10.3877 0.094768 0.11187)
(10.3774 0.0293429 0.0375521)
(10.7677 0.0828281 0.202713)
(10.6404 0.14622 0.115186)
(10.5413 0.196485 -0.0209588)
(10.8552 0.10251 0.265488)
(10.8474 0.126717 0.274367)
(10.7442 0.125241 0.268455)
(10.5474 0.148879 0.126076)
(10.4493 0.122488 0.088771)
(10.4943 0.120175 0.140523)
(10.5472 0.161585 0.0554508)
(10.4929 0.0907424 0.149334)
(10.5321 0.0551703 0.0815481)
(10.6324 0.114042 0.226923)
(10.7268 0.112434 0.243966)
(11.2792 0.00428687 0.362391)
(11.3504 0.0723006 0.3152)
(11.3502 0.0498169 0.3441)
(11.2814 0.030101 0.310946)
(11.2736 0.0171171 0.302383)
(11.2719 0.0749718 0.320284)
(11.2016 0.035437 0.30001)
(11.2088 0.0256544 0.343515)
(11.1545 -0.00779913 0.317044)
(11.8642 0.0234771 0.182523)
(11.868 0.0107846 0.202132)
(11.7614 0.00727543 0.234428)
(11.8704 0.0197035 0.154485)
(11.901 0.00908077 0.173531)
(11.5995 0.0202132 0.118351)
(11.7726 -0.000557809 0.242668)
(11.8016 -0.0104737 0.208045)
(12.6062 0.0055418 0.00694276)
(12.6967 0.0166989 0.0360111)
(12.4752 -0.0145462 -0.0520787)
(12.4989 0.0488426 0.0180555)
(12.8942 0.00535123 0.124489)
(12.8517 0.0429315 0.162856)
(12.6773 0.0146439 0.0744142)
(12.5229 0.0418165 0.0182692)
(12.4969 0.0286071 0.0621849)
(12.4284 0.0291615 -0.00240352)
(12.8252 0.0358888 0.151091)
(12.5063 0.0467959 0.0262548)
(12.5228 -0.00299534 -0.00796104)
(12.8159 0.0304625 0.18745)
(12.4443 0.035561 0.0582132)
(11.5173 1.06949 0.89838)
(11.2728 1.23197 0.887398)
(11.1849 1.29613 0.848397)
(11.3725 1.20517 0.800172)
(11.2395 1.1009 0.760069)
(11.7125 0.930829 0.86612)
(11.5506 0.744031 0.559328)
(11.4277 0.870265 0.686758)
(11.5558 1.26072 1.02663)
(11.4375 0.94894 0.663393)
(11.541 1.06382 0.701382)
(11.8056 1.13098 0.905637)
(11.6314 0.921554 0.608235)
(12.7271 -0.077271 -0.0627146)
(12.8417 -0.0466687 -0.078061)
(12.7442 -0.0219184 -0.036067)
(12.575 -0.0547738 -0.010575)
(12.6015 -0.0344401 0.00402431)
(12.464 -0.0385112 -0.0318832)
(12.7058 -0.0774746 -0.0298754)
(12.6497 -0.0856636 -0.0132287)
(12.5059 -0.0917497 -0.0021572)
(12.8365 -0.0501263 -0.085393)
(12.5964 -0.053986 -0.0266769)
(12.733 -0.0690891 -0.0480753)
(12.499 -0.0486066 -0.0109616)
(12.4498 -0.0408425 0.00628814)
(10.6426 -0.0664148 -0.630081)
(10.1621 -0.20142 -0.77058)
(10.0339 -0.0208439 -0.856136)
(9.44933 -0.111472 -0.682435)
(8.98888 -0.141669 -0.763207)
(9.27792 -0.0915168 -0.72425)
(11.7462 0.370563 -0.597952)
(11.5915 0.233568 -0.453588)
(11.6682 0.209713 -0.423972)
(11.7537 0.250975 -0.458961)
(11.866 0.271818 -0.458685)
(11.5062 0.188005 -0.183296)
(11.3581 0.304265 -0.135386)
(11.4027 0.296501 -0.106436)
(11.5278 0.32739 -0.222094)
(11.7628 0.325534 -0.227905)
(11.6095 0.267102 -0.0539957)
(11.7077 -0.0024655 -0.119593)
(11.7417 -0.0251832 -0.0472111)
(11.7689 -0.0307379 -0.0409327)
(11.9677 -0.0573837 -0.0820791)
(11.9353 -0.0025367 -0.154331)
(11.5954 -0.0233192 -0.0637072)
(11.6142 0.048821 -0.102877)
(11.8924 -0.00270809 -0.178312)
(11.763 -0.00281997 -0.117176)
(11.6554 -0.0425182 -0.0262578)
(11.9102 0.00239936 -0.175356)
(11.5667 0.0184847 -0.115324)
(11.5176 -0.00757136 -0.0186868)
(11.5308 -0.00377993 -0.0567307)
(11.7267 0.385573 -0.0270034)
(11.7938 0.401918 0.0101582)
(11.6286 0.382355 -0.023394)
(11.9518 0.355972 -0.00326902)
(11.8213 0.347264 0.0363541)
(11.7229 0.419486 -0.031155)
(11.8073 0.418864 -0.00699432)
(11.7717 0.455164 -0.0496934)
(11.6704 0.443793 -0.0190483)
(12.059 0.415182 -0.0735534)
(12.0924 0.390688 -0.062348)
(11.8311 0.418698 -0.0176605)
(11.8272 0.428554 -0.0357054)
(11.88 0.41514 -0.00284275)
(12.0226 -0.0108851 -0.411866)
(11.8616 -0.0117639 -0.46668)
(12.0936 -0.0868769 -0.452013)
(11.9973 -0.0631211 -0.364332)
(12.0339 -0.0735278 -0.349779)
(12.1464 -0.0889091 -0.468786)
(11.8982 -0.0114687 -0.350369)
(11.8059 0.0260525 -0.412394)
(11.8555 -0.0262748 -0.484078)
(11.6848 -0.0129752 -0.441407)
(11.8749 -0.0505273 -0.500072)
(11.7947 -0.0266094 -0.344294)
(11.8342 -0.0180469 -0.31094)
(11.795 -0.0136473 -0.49485)
(11.7126 -0.00486695 -0.440166)
(11.7615 -0.0110802 -0.331037)
(11.7991 0.0211246 -0.420033)
(10.2725 -0.1106 0.291834)
(9.96564 0.0349153 0.180012)
(10.0819 0.0203745 0.12751)
(10.0381 0.03851 0.176956)
(10.202 -0.169498 0.233131)
(10.3877 -0.218788 0.226221)
(10.3263 -0.311749 0.45963)
(11.5755 -0.300187 0.379418)
(11.6521 -0.367097 0.348869)
(11.5847 -0.335987 0.357835)
(10.3657 -0.132269 0.266315)
(10.2147 -0.23473 0.333651)
(11.9478 0.0964305 0.0137176)
(11.2107 0.0627785 0.0390017)
(11.6396 0.030362 0.0332598)
(11.3384 0.00911066 0.0490185)
(11.3221 0.0728876 0.0646392)
(11.5867 0.0116282 0.0432293)
(11.4938 0.0198794 0.0460736)
(11.4602 0.0753644 0.0390498)
(11.9498 0.0995428 -0.000227056)
(11.8773 0.086659 0.0225631)
(11.91 0.102839 0.0206402)
(11.8636 0.0783789 0.0165917)
(11.9361 0.100568 0.025129)
(12.1889 0.0398743 0.126558)
(12.1234 0.0107831 0.139244)
(12.3023 0.0594926 0.154359)
(12.2441 0.00292421 0.176035)
(12.2142 -0.011827 0.180582)
(12.149 0.0347933 0.110893)
(12.1511 0.00368121 0.127912)
(12.2255 0.0249024 0.146982)
(12.1993 0.00564408 0.156741)
(12.223 0.0556498 0.118927)
(12.5434 0.119636 0.157727)
(12.4809 0.101696 0.14934)
(12.2413 0.0459968 0.120137)
(12.4284 0.0966391 0.123696)
(12.4122 0.0938597 0.11878)
(9.90779 0.0839675 0.0220456)
(9.84265 0.0577823 0.0311356)
(9.78464 -0.00773401 -0.0242419)
(9.7288 0.000730775 -0.0244097)
(9.80488 0.0560985 -0.0110573)
(9.91634 0.0543139 -0.00861509)
(9.94017 0.0753093 0.00190684)
(9.75957 0.0409336 -0.0118151)
(9.84037 0.0283808 -0.0179724)
(8.05998 -0.0898395 -1.51998)
(7.91715 -0.0420872 -1.50492)
(7.93645 -0.227671 -1.66316)
(7.96759 -0.256218 -1.6203)
(7.69767 -0.138267 -1.68012)
(7.56704 -0.0650029 -1.61899)
(7.4677 -0.197973 -1.78634)
(7.54091 -0.30061 -1.77276)
(7.67221 -0.07882 -1.5959)
(7.60948 -0.240531 -1.73362)
(7.64603 -0.27686 -1.68681)
(7.9531 -0.212836 -1.56029)
(7.91017 -0.287139 -1.61004)
(6.98919 0.192146 0.455735)
(3.32965 0.125652 0.588263)
(3.9061 0.344206 0.305451)
(7.37168 0.00668186 0.321917)
(7.86757 -0.15647 0.480976)
(7.26181 -0.300623 0.534567)
(7.69018 0.0384295 0.466199)
(2.28076 0.402827 0.359693)
(2.11062 0.678613 0.468411)
(3.92969 -0.0376836 0.73585)
(3.70999 0.0410375 0.47355)
(12.0439 0.079454 0.142861)
(12.133 0.0952339 0.152183)
(12.1531 0.104706 0.143029)
(11.9049 0.121293 0.0667607)
(11.832 0.116477 0.0509045)
(11.8655 0.0825409 0.0836286)
(11.8834 0.106053 0.0737763)
(11.8526 0.110702 0.0529129)
(11.7704 0.106418 0.0516963)
(12.0452 0.069782 0.134416)
(12.0973 0.079476 0.122112)
(11.6843 0.0354709 0.039425)
(11.6543 0.0383354 0.0698693)
(11.6629 0.0666488 0.0086443)
(11.8441 0.0802389 0.0771086)
(11.6195 0.0348311 0.0524536)
(11.6168 0.0284921 0.0268756)
(1.87627 -0.585045 0.610625)
(1.45056 -0.51674 0.635667)
(1.15395 -0.54246 0.781515)
(-0.555241 -0.318741 0.285176)
(-0.604129 0.0724249 0.440915)
(1.25922 -0.650597 0.54299)
(0.512954 0.718228 0.506966)
(-0.16689 -0.705942 0.294764)
(1.55578 -0.939865 0.48175)
(-0.948092 -0.158226 -0.0546525)
(-1.32978 -0.400919 -0.0344427)
(10.7575 0.0844356 0.0194263)
(10.6672 0.089313 -0.0029126)
(10.4989 0.0545032 0.0210612)
(10.3839 0.0159974 0.064202)
(10.3154 0.0725584 -0.0291673)
(10.603 0.0181869 0.0718011)
(10.5886 0.02533 0.0364887)
(10.282 0.0678196 0.0468122)
(10.3976 0.0554633 0.0441037)
(10.19 0.016526 0.0258824)
(10.3749 0.0569642 0.0312644)
(10.6932 0.197809 0.117511)
(10.6602 0.190588 0.100189)
(10.7178 0.208971 0.119126)
(10.673 0.189618 0.0938854)
(10.5222 0.176227 0.0633513)
(10.5809 0.189567 0.0849356)
(10.4366 0.222836 0.0334694)
(10.4966 0.225518 0.0493705)
(10.6164 0.225077 0.0695078)
(10.5113 0.218332 0.0489128)
(10.3217 0.210341 0.00206524)
(10.4009 0.216655 0.00705977)
(10.4494 0.172566 0.0445985)
(10.4969 0.189971 0.0532163)
(10.4287 0.190653 0.045776)
(9.52366 0.0665806 0.424139)
(9.30391 0.0821689 0.318212)
(9.66481 0.0457092 0.294531)
(9.86257 -0.028988 0.264836)
(9.12934 0.00814235 0.275775)
(11.5604 -0.050931 0.719394)
(11.6876 -0.0854128 0.720405)
(11.7625 -0.106071 0.7764)
(11.7154 -0.0929865 0.769086)
(12.0339 -0.181959 0.771437)
(11.993 -0.193793 0.797415)
(11.8551 -0.119256 0.74337)
(7.94417 2.52109 -0.0497114)
(7.50657 2.68886 -0.562582)
(8.87969 2.28873 -0.311406)
(8.72978 2.5641 -0.477735)
(7.98493 2.97613 -0.122332)
(7.46337 3.01616 -0.659175)
(8.08801 2.25791 -0.0240597)
(7.58331 2.36403 -0.650529)
(8.22669 3.0262 -1.31066)
(7.35858 3.08346 -1.38129)
(8.29424 2.1441 -0.122926)
(7.97011 2.15092 -0.721937)
(8.31066 2.69841 -1.2203)
(7.77249 2.65937 -1.05223)
(8.95647 2.19997 -0.317211)
(8.47516 2.4502 -1.14885)
(7.91147 2.41153 -0.988603)
(8.97654 2.24317 -0.519801)
(9.63929 2.07306 -0.353137)
(9.79446 1.91176 -0.426623)
(9.61585 1.95761 -0.649353)
(9.54528 2.04874 -0.742926)
(9.55428 1.77241 -0.640517)
(9.47922 2.07811 -0.734049)
(9.58564 1.9134 -0.222925)
(9.51601 2.0862 -0.276865)
(9.44711 2.19791 -0.611695)
(9.02699 2.02356 -0.557728)
(9.33645 1.70566 -0.472642)
(9.30967 1.88033 -0.270165)
(9.0267 2.22002 -0.229896)
(10.2403 3.17851 -0.986591)
(10.5864 2.74403 -0.914059)
(10.9963 2.07668 -0.37448)
(10.9087 1.97441 -0.377492)
(10.3803 2.46179 -0.888474)
(10.6044 2.4521 -0.805812)
(10.7334 2.1854 -0.52669)
(10.7071 2.11297 -0.530733)
(10.4941 3.17337 -0.833848)
(10.8221 2.9015 -0.689191)
(9.99421 2.81698 -0.920881)
(10.0701 2.91084 -0.90583)
(10.768 2.60583 -0.312575)
(10.6798 2.40656 -0.287607)
(10.9895 2.33629 -0.368978)
(10.4307 2.15268 -0.604507)
(10.1228 2.61542 -0.565632)
(10.192 2.7437 -0.597537)
(10.4963 2.70142 -0.343161)
(10.4842 2.56553 -0.368423)
(10.424 2.83415 -0.517823)
(10.3386 2.50008 -0.436514)
(12.907 -0.117295 0.305461)
(12.714 -0.157765 0.300923)
(12.7628 -0.192534 0.310061)
(12.7227 -0.141728 0.304919)
(12.7759 -0.18157 0.308955)
(12.9888 -0.0930138 0.312634)
(12.8476 -0.0956024 0.310995)
(12.9931 -0.129295 0.284557)
(12.7878 -0.161424 0.298518)
(12.9295 -0.107934 0.308113)
(12.8861 -0.201662 0.304692)
(12.8433 -0.118859 0.303443)
(12.9732 -0.149342 0.288579)
(12.854 -0.139495 0.299258)
(12.9716 -0.171528 0.293969)
(12.9556 -0.116981 0.296668)
(5.02636 -0.568148 -0.172925)
(-0.552429 -1.21979 -0.585374)
(2.29259 1.0548 0.115485)
(1.88048 1.78626 0.0195532)
(10.6459 0.714075 -1.54571)
(10.846 0.85991 -1.91466)
(4.83608 1.27933 -0.338663)
(5.47649 0.960981 -0.244297)
(11.1931 0.364105 -1.28221)
(11.378 0.404571 -1.48717)
(-0.264763 -0.201394 0.553421)
(6.9858 -0.195842 -0.707157)
(4.75094 0.0874112 0.119582)
(5.59666 1.58212 -0.121701)
(10.6635 0.761167 -1.32113)
(11.3439 0.673653 -1.16262)
(12.4573 0.0827107 0.29824)
(12.503 0.12502 0.287907)
(12.3945 0.075814 0.23484)
(12.3554 0.0764621 0.198605)
(12.3254 0.0929089 0.211627)
(12.3407 0.0820116 0.258261)
(12.4492 0.0939887 0.252697)
(12.5085 0.102855 0.287961)
(12.4409 0.126589 0.295337)
(12.4042 0.0700835 0.300066)
(12.2748 0.0941191 0.200412)
(12.2519 0.067136 0.153481)
(12.3055 0.0789003 0.21646)
(12.3313 0.077904 0.256603)
(12.2589 0.0681442 0.14615)
(12.3221 0.075826 0.159634)
(12.4123 0.0736371 0.190609)
(12.3655 0.0882146 0.204682)
(9.74411 1.73529 -0.158684)
(9.43303 1.66381 0.585877)
(9.34274 2.03469 0.749279)
(9.71842 1.9007 0.0966758)
(9.61285 2.05006 -0.0301502)
(9.23215 2.50553 0.210526)
(8.71955 2.69815 0.173227)
(9.37118 1.705 -0.156118)
(9.54581 2.06128 0.512601)
(9.0202 1.91229 0.554464)
(8.86995 2.18347 0.5914)
(8.80973 2.66089 0.297648)
(9.30988 2.39563 0.460591)
(9.73267 1.76888 0.293918)
(9.67682 1.59793 0.289045)
(9.63411 1.63425 -0.0999994)
(10.5759 0.651566 -0.276639)
(10.6471 0.653568 -0.227665)
(10.6051 0.598747 -0.264395)
(10.6103 0.765215 -0.301669)
(10.717 0.829998 -0.209729)
(10.5488 0.546532 -0.28301)
(10.4843 0.630596 -0.351972)
(10.5223 0.718767 -0.379701)
(10.5833 0.735238 -0.371685)
(10.5174 0.72475 -0.41573)
(10.5728 0.733611 -0.355764)
(10.6458 0.738191 -0.396523)
(10.5931 0.728158 -0.439121)
(10.6973 0.755598 -0.342278)
(10.6382 0.726093 -0.334115)
(10.4888 0.595215 -0.318619)
(10.4555 0.624885 -0.376139)
(11.6618 -0.0537979 0.739173)
(11.67 -0.0276685 0.712871)
(11.7832 0.11944 0.614392)
(11.7875 0.152993 0.62773)
(11.7794 0.160932 0.63059)
(11.7747 0.116319 0.608478)
(11.6787 -0.0187995 0.800816)
(11.6579 -0.0104414 0.826767)
(11.7858 0.280694 0.750176)
(11.7771 0.366206 0.89404)
(11.6439 -0.0149685 0.667496)
(11.7832 0.120614 0.614061)
(11.7968 0.281235 0.753392)
(11.7962 0.314549 0.832362)
(11.6476 0.00398792 0.633382)
(11.8309 0.2782 0.814143)
(11.7208 0.000525466 0.762696)
(9.57621 -1.27287 0.671778)
(10.0198 -1.31418 0.715736)
(10.1012 -1.31639 0.782867)
(9.30128 -1.36605 0.619987)
(10.1827 -1.28236 0.724247)
(9.21163 -1.31659 0.59036)
(9.78013 -1.19355 0.608076)
(9.31886 -1.16256 0.519907)
(10.2222 -1.26092 0.747684)
(10.307 -1.33109 0.764551)
(10.1578 -1.31739 0.797618)
(9.35643 -1.47258 0.563946)
(9.12079 -1.16118 0.411918)
(9.62612 -1.25832 0.459322)
(9.35472 -1.29951 0.33014)
(9.95771 -1.25249 0.639747)
(8.86435 -1.32182 0.225672)
(8.92742 -1.3531 0.214119)
(11.2876 -0.767282 0.609422)
(11.4411 -0.667738 0.60767)
(11.389 -0.624217 0.56043)
(11.3473 -0.630508 0.373978)
(11.2083 -0.781165 0.440214)
(11.3596 -0.510526 0.487364)
(11.2481 -0.76294 0.607266)
(11.3323 -0.651324 0.566651)
(11.2837 -0.621784 0.535771)
(11.3173 -0.482915 0.476323)
(11.2648 -0.668432 0.381197)
(11.2119 -0.653065 0.505139)
(11.2427 -0.569891 0.416264)
(11.1761 -0.804247 0.550414)
(11.3537 -0.980107 0.854625)
(11.3723 -0.928272 0.862751)
(11.4046 -0.864148 1.07922)
(11.658 -0.711941 1.0499)
(11.4577 -0.855084 1.10046)
(11.4243 -0.897176 1.09365)
(11.2723 -1.02207 0.946317)
(11.4109 -0.942519 0.84762)
(11.4664 -0.863048 0.870731)
(11.4058 -1.0061 1.05514)
(11.4213 -0.984619 1.04475)
(11.331 -1.01574 0.96327)
(11.4336 -0.941649 0.87656)
(11.637 -0.737978 0.907561)
(11.6497 -0.749273 0.895883)
(11.3851 -0.9957 0.947136)
(11.6702 -0.772399 0.94851)
(11.5132 -0.919982 0.998368)
(10.6595 3.28976 -0.843771)
(11.0324 3.21161 -0.743059)
(11.0218 2.96847 -0.691633)
(10.4503 3.2358 -0.623852)
(10.7637 3.43171 -0.631671)
(11.3748 2.91497 -0.400172)
(11.2184 2.55156 -0.363869)
(11.06 3.36335 -0.0738672)
(11.2735 3.18123 -0.0369906)
(10.6043 3.29474 -0.23325)
(11.1169 2.49779 -0.313206)
(11.1236 3.52207 -0.25546)
(11.638 -0.225069 1.09063)
(12.0527 -0.204548 1.09536)
(11.4658 -0.459876 1.02156)
(12.0277 -0.203588 1.0734)
(11.5176 -0.207086 1.0777)
(11.8466 -0.391695 0.989003)
(11.457 -0.395989 0.986421)
(11.5323 -0.471089 0.934607)
(11.7397 -0.426451 1.00849)
(12.2198 -0.200878 0.944763)
(12.3206 -0.214666 0.86901)
(12.2072 -0.264435 0.899519)
(12.1059 -0.384364 0.807636)
(12.2268 -0.36421 0.827783)
(12.3093 -0.230863 0.858255)
(12.2118 -0.357463 0.806307)
(11.5305 -0.118105 1.13277)
(11.3982 0.0168703 1.06694)
(11.458 -0.0681326 1.10032)
(11.3721 0.0216351 1.02168)
(11.1159 0.0173966 1.25353)
(11.0315 -0.245199 1.38638)
(10.698 -0.300235 1.37125)
(11.0743 0.0685152 1.34174)
(11.1 0.036294 1.21608)
(11.3362 0.0423096 1.03755)
(11.4115 -0.0396986 1.08433)
(11.4276 -0.241944 1.19189)
(10.7521 -0.363878 1.33001)
(11.3218 -0.169999 1.1342)
(11.2252 -0.33234 1.20183)
(11.2381 -0.320145 1.21123)
(12.3253 0.442628 0.568271)
(12.3859 0.457488 0.589429)
(12.4312 0.395591 0.537929)
(12.2578 0.513716 0.414966)
(12.0702 0.679999 0.544097)
(12.2774 0.275979 0.50232)
(12.2114 0.285893 0.493765)
(12.4542 0.549493 0.532303)
(12.3489 0.620994 0.601053)
(12.2935 0.615914 0.438024)
(12.1498 0.696704 0.542022)
(12.2701 0.563665 0.606206)
(12.2143 0.521774 0.578144)
(12.1032 0.488671 0.600989)
(12.1846 0.416741 0.493237)
(12.346 0.290109 0.505904)
(12.3127 0.349059 0.470887)
(12.2404 0.344019 0.489674)
(12.3499 0.509904 0.476739)
(10.7055 -0.536231 -0.967406)
(10.6796 -0.536559 -0.951077)
(10.761 -0.506961 -0.775003)
(10.6086 -0.679634 -1.02616)
(10.7423 -0.557898 -0.944387)
(10.5811 -0.657676 -0.908138)
(10.7777 -0.72655 -0.981578)
(10.9286 -0.515803 -0.887524)
(10.6789 -0.652589 -0.817485)
(10.954 -0.519606 -0.683097)
(10.6216 -0.691919 -0.926045)
(10.8108 -0.712096 -0.857163)
(10.7844 -0.706577 -0.749457)
(10.8065 -0.734363 -0.77096)
(10.1117 -0.968763 -0.502035)
(10.1252 -0.931463 -0.518481)
(10.315 -0.938015 -0.360272)
(10.1696 -1.02156 -0.384414)
(10.2255 -0.904904 -0.431485)
(10.2749 -1.0168 -0.394477)
(10.4734 -0.860496 -0.335166)
(10.3999 -0.752362 -0.540838)
(10.3642 -0.791709 -0.542192)
(10.6309 -0.699105 -0.37327)
(10.5608 -0.727035 -0.369836)
(10.2277 -1.00014 -0.564045)
(10.5803 -0.752687 -0.397508)
(10.4676 -0.753471 -0.53774)
(10.4697 -0.778966 -0.547588)
(10.6095 -0.686132 -0.383953)
(10.5692 -0.693275 -0.376979)
(10.5276 -0.788547 -0.512121)
(11.559 1.33621 -0.115617)
(11.123 1.44176 -0.5458)
(10.801 1.57785 -0.802914)
(12.1952 0.662538 -0.287485)
(12.1228 0.877806 -0.232083)
(11.5256 1.17236 -0.468342)
(11.7725 1.09397 -0.152334)
(12.3055 0.62413 -0.274091)
(12.1503 0.88837 -0.202077)
(11.1045 1.17201 -0.811569)
(11.6421 0.899001 -0.622723)
(5.92918 0.845728 -0.563408)
(6.00306 0.764407 -0.45165)
(5.97989 0.928433 -0.621454)
(5.84364 1.14763 -0.8308)
(5.55766 1.3631 -1.09318)
(5.35707 1.11917 -1.19053)
(5.31924 1.40686 -1.21377)
(5.13826 1.2332 -1.33865)
(6.05234 0.683301 -0.58038)
(6.16315 0.54313 -0.562971)
(5.82711 0.640687 -0.749953)
(5.04525 0.547719 -1.12223)
(5.04521 0.608219 -1.1966)
(5.318 0.756746 -0.976125)
(5.12388 0.812331 -1.16093)
(5.07411 0.740355 -1.06779)
(5.07424 1.15047 -1.37673)
(6.07361 0.495265 -0.719741)
(5.69057 0.386961 -1.0068)
(5.9557 0.309589 -0.879314)
(5.67377 0.744421 -0.93179)
(13.1007 -0.190158 0.306625)
(13.112 -0.188642 0.274516)
(13.1268 -0.110232 0.319716)
(13.1408 -0.139234 0.285448)
(13.1183 -0.127236 0.327356)
(13.0757 -0.202099 0.315534)
(13.0817 -0.197602 0.319946)
(13.1187 -0.0955893 0.314279)
(13.0971 -0.0855178 0.33669)
(12.9886 -0.114622 0.367751)
(12.9892 -0.13397 0.359225)
(12.9487 -0.10959 0.382891)
(13.1061 -0.110366 0.311545)
(12.9984 -0.101678 0.357334)
(12.9339 -0.0856893 0.35799)
(13.0126 -0.107335 0.337471)
(12.9487 -0.0729777 0.351109)
(11.4816 0.265979 1.08648)
(11.31 0.258586 1.1493)
(11.1012 0.0934575 1.36713)
(10.4946 0.168695 1.49707)
(11.4645 0.286055 1.14555)
(11.3332 0.248961 1.24884)
(10.3688 0.802664 0.864342)
(10.379 0.608143 1.12202)
(11.2267 0.152602 1.31802)
(10.4846 0.272063 1.41344)
(10.5701 0.587357 1.34912)
(9.76445 0.345683 0.322158)
(9.74334 0.394382 0.235452)
(9.7037 0.419336 0.273239)
(8.27359 0.282658 0.182243)
(8.81127 0.413955 0.29842)
(7.19198 0.275838 0.228874)
(6.60208 0.234602 0.242514)
(7.28526 0.189962 0.384037)
(8.12911 0.58192 0.281655)
(8.7439 0.497486 0.231885)
(6.38167 0.279553 0.0183637)
(7.10082 0.376711 0.0878879)
(6.652 0.364507 0.152926)
(11.1458 -0.437098 -0.400196)
(11.071 -0.397546 -0.377613)
(11.1519 -0.421165 -0.286745)
(11.2088 -0.426961 -0.290265)
(11.1312 -0.493023 -0.408722)
(11.0775 -0.460366 -0.378047)
(11.1021 -0.480695 -0.46296)
(11.0482 -0.470138 -0.463071)
(11.098 -0.375661 -0.273766)
(11.1912 -0.414203 -0.30728)
(10.9851 -0.391526 -0.381349)
(11.0178 -0.381343 -0.363826)
(11.2097 -0.40842 -0.265357)
(11.025 -0.459372 -0.413797)
(11.1295 -0.383581 -0.233781)
(11.0931 -0.379902 -0.265961)
(10.9644 -0.381761 -0.338778)
(11.0002 -0.370357 -0.30764)
(11.0554 -0.370957 -0.248371)
(11.0588 -0.377971 -0.235812)
(11.0501 -0.380957 -0.274671)
(10.998 -0.40329 -0.333562)
(11.5583 -0.78736 -0.816924)
(11.8597 -0.62824 -0.698925)
(11.3919 -0.64548 -0.944235)
(11.8263 -0.503271 -0.749097)
(11.8371 -0.62717 -0.650806)
(11.3122 -0.886486 -0.804046)
(11.2983 -0.593952 -0.994873)
(11.7714 -0.481269 -0.740569)
(11.4967 -0.537956 -0.887165)
(11.2554 -0.872884 -0.777782)
(11.4871 -0.729494 -0.641009)
(11.5609 -0.740028 -0.66503)
(11.0897 -0.749708 -1.05245)
(11.7149 -0.513654 -0.757472)
(11.4536 -0.527669 -0.884571)
(10.9721 -0.787714 -1.11823)
(11.2142 -0.623956 -1.03114)
(11.5369 -0.631186 -0.718427)
(11.7684 -0.597935 -0.65339)
(11.6966 -0.577916 -0.70224)
(11.9029 0.217936 0.214402)
(11.876 0.207562 0.21497)
(11.9629 0.2279 0.26074)
(11.9665 0.259507 0.322959)
(11.8557 0.214819 0.202383)
(11.8468 0.21596 0.212119)
(11.9301 0.250718 0.320835)
(11.9149 0.24228 0.277501)
(11.9391 0.203952 0.288204)
(11.8778 0.216605 0.338872)
(11.9108 0.221336 0.309913)
(11.8373 0.209323 0.223834)
(11.7974 0.214958 0.222419)
(11.8174 0.218426 0.214742)
(11.9389 0.215658 0.319364)
(11.9106 0.211118 0.358942)
(11.8264 0.208543 0.296769)
(11.7822 0.221727 0.214548)
(11.8698 0.237765 0.282336)
(11.8783 0.246312 0.330005)
(11.8029 0.240524 0.274114)
(11.8452 0.241482 0.310185)
(10.7596 0.45652 0.946798)
(10.7765 0.520199 1.03523)
(11.6685 0.251377 0.841465)
(11.6621 0.287929 0.814405)
(11.5156 0.258346 0.95038)
(11.4539 0.323132 1.0046)
(11.5206 0.280745 0.851757)
(11.4654 0.28516 0.972925)
(11.2843 0.319311 0.908714)
(10.8776 0.376462 0.873632)
(10.8285 0.385537 0.865047)
(10.9594 0.409592 0.861377)
(11.5321 0.3867 0.871611)
(11.6206 0.299242 0.722195)
(11.626 0.253513 0.767091)
(11.0946 0.365467 0.81406)
(11.3973 0.349794 0.745191)
(11.9761 0.445697 0.755522)
(11.9751 0.54058 0.734132)
(12.2239 0.245517 0.766808)
(12.1782 0.327267 0.686769)
(12.2307 0.274457 0.725981)
(12.3293 0.265387 0.726516)
(12.3609 0.22555 0.697546)
(12.235 0.401814 0.591195)
(12.2101 0.379952 0.609024)
(12.1522 0.488157 0.560026)
(12.2232 0.471254 0.554451)
(12.3359 0.294687 0.676235)
(12.2279 0.547847 0.55499)
(12.1563 0.553316 0.556793)
(10.9598 0.790572 -0.420683)
(10.9046 0.72687 -0.274336)
(10.85 0.679893 -0.271897)
(10.8974 0.729567 -0.450308)
(10.8313 0.725428 -0.45518)
(10.949 0.589834 -0.314595)
(10.89 0.529555 -0.285405)
(10.985 0.648701 -0.326992)
(10.9401 0.587134 -0.327463)
(10.8682 0.53853 -0.296917)
(12.5973 -0.282285 0.676344)
(12.5713 -0.310298 0.682122)
(12.4661 -0.226705 0.738721)
(12.4846 -0.23705 0.702695)
(12.5776 -0.366545 0.72956)
(12.5918 -0.387169 0.74428)
(12.5294 -0.255264 0.705436)
(12.5305 -0.206188 0.707405)
(12.5362 -0.357475 0.747268)
(12.4594 -0.193297 0.738938)
(12.4767 -0.238471 0.775708)
(12.485 -0.211529 0.775311)
(12.4777 -0.172024 0.741919)
(12.5131 -0.315165 0.789779)
(12.5049 -0.174222 0.740195)
(12.5065 -0.208889 0.763152)
(12.5342 -0.320479 0.782803)
(8.69663 -0.327251 -0.229611)
(8.58976 -0.301136 -0.172439)
(8.41525 -0.177876 -0.0847304)
(7.98566 -0.258196 -0.173431)
(7.97256 -0.289509 -0.283361)
(8.34723 -0.213953 -0.175587)
(8.67499 -0.418611 -0.546971)
(8.70156 -0.429793 -0.562288)
(8.51631 -0.435045 -0.544982)
(8.32986 -0.420889 -0.504738)
(8.44176 -0.181445 -0.0668591)
(8.56841 -0.272771 -0.182989)
(8.8347 -0.412843 -0.330249)
(8.76541 -0.380834 -0.317279)
(8.35772 -0.363183 -0.463184)
(8.22646 -0.392782 -0.483116)
(7.85226 -0.308037 -0.34392)
(8.47232 -0.290143 -0.247064)
(8.79584 -0.462799 -0.374015)
(8.57064 -0.400564 -0.377579)
(11.7786 -0.0113934 0.507089)
(11.6303 -0.0755871 0.498029)
(11.6227 -0.0137336 0.479748)
(11.7394 0.0110933 0.502509)
(11.6154 -0.117243 0.517986)
(11.329 -0.0919944 0.516945)
(11.5544 -0.183584 0.504862)
(11.7981 -0.0313689 0.464812)
(11.7875 -0.0107846 0.491232)
(11.7333 -0.0705065 0.496803)
(11.3642 -0.206758 0.448494)
(11.3031 -0.120467 0.514248)
(11.7555 0.0132155 0.494114)
(11.5133 -0.0908739 0.494769)
(11.5222 -0.127429 0.476909)
(11.2688 -0.176409 0.475581)
(3.88588 -0.750542 0.599161)
(3.98323 -0.922843 0.62378)
(3.23852 -0.845126 1.04011)
(2.75874 -0.645368 1.18359)
(7.01797 -1.05881 0.328566)
(5.58231 -0.936994 0.396057)
(8.50416 -0.494699 0.710828)
(6.44509 -0.157722 0.904985)
(3.66819 0.224057 1.53877)
(5.48795 -0.339461 1.09863)
(8.45233 -0.497874 0.5542)
(6.64407 -0.502194 0.837232)
(5.49851 -0.00404565 0.883397)
(12.2183 -0.102848 1.19948)
(12.1931 -0.00524156 1.24074)
(12.2495 -0.13079 1.17189)
(12.3053 -0.186867 1.08766)
(12.3737 -0.172584 1.01323)
(12.3163 -0.131937 1.09662)
(12.1795 0.0222273 1.24476)
(12.1785 0.125385 1.07798)
(12.2513 -0.029863 1.03868)
(12.2947 -0.154052 1.05068)
(12.4046 -0.104954 0.961523)
(12.194 0.178482 1.03459)
(11.7647 0.35677 -0.126897)
(11.7177 0.267646 -0.153466)
(11.7648 0.233096 -0.166263)
(11.8551 0.358569 -0.104334)
(11.7931 0.305687 -0.10612)
(11.8298 0.281698 -0.124654)
(11.9849 0.337933 -0.133314)
(12.0719 0.344457 -0.147911)
(11.975 0.254498 -0.146274)
(11.9344 0.243444 -0.146346)
(12.0061 0.550794 -0.228628)
(12.0874 0.54465 -0.228586)
(11.9281 0.499407 -0.249897)
(11.9857 0.490517 -0.232811)
(11.8392 0.492465 -0.254741)
(11.8775 0.415903 -0.175052)
(11.8853 0.331303 -0.113982)
(11.9428 0.504024 -0.221564)
(11.96 0.390274 -0.152082)
(11.8087 -0.566414 0.375716)
(11.7822 -0.517745 0.466573)
(11.8613 -0.456365 0.328516)
(11.8305 -0.401635 0.388569)
(11.8647 -0.399631 0.408296)
(12.2698 -0.477547 0.480012)
(12.147 -0.479251 0.503502)
(11.8356 -0.495273 0.473794)
(12.0213 -0.50846 0.35703)
(12.5456 -0.393098 0.650354)
(12.5508 -0.404273 0.616294)
(11.9762 -0.494404 0.555525)
(12.5557 -0.460752 0.468884)
(12.3699 -0.483917 0.469075)
(12.5416 -0.427247 0.551013)
(12.635 -0.384676 0.634948)
(12.6492 -0.366505 0.579732)
(12.4039 -0.473555 0.559752)
(12.6215 -0.390883 0.531094)
(3.67953 1.4947 -1.34214)
(3.7596 1.39001 -1.43038)
(4.35716 1.42425 -1.42535)
(3.94238 1.40096 -1.3452)
(4.19511 1.43446 -1.46034)
(4.22302 1.43119 -1.53436)
(4.54909 1.40732 -1.54993)
(4.58783 1.37317 -1.48946)
(4.69719 1.35893 -1.30913)
(4.73677 1.38725 -1.56511)
(5.18918 1.36543 -1.25727)
(5.13003 1.34274 -1.23877)
(5.19116 1.42066 -1.22013)
(5.16974 1.33992 -1.21484)
(5.26409 1.41949 -1.17971)
(4.61171 1.43802 -1.53669)
(10.9688 0.465952 -0.317578)
(10.8883 0.435629 -0.248616)
(10.9455 0.437036 -0.327191)
(11.0374 0.49906 -0.394246)
(10.9871 0.494562 -0.667419)
(10.9069 0.489661 -0.662292)
(10.8932 0.443322 -0.308342)
(11.0039 0.508204 -0.53544)
(10.9486 0.518144 -0.658686)
(10.9002 0.489224 -0.669303)
(10.8676 0.366402 -0.376462)
(10.9627 0.4251 -0.48492)
(10.9429 0.508415 -0.489861)
(10.8253 0.376931 -0.382398)
(10.78 0.381493 -0.390851)
(10.8536 0.470766 -0.513803)
(9.51316 0.216416 -1.41309)
(8.34797 0.0827639 -1.51639)
(9.76747 0.207319 -1.55594)
(8.39397 0.0407245 -1.42629)
(9.7215 0.197387 -1.26671)
(7.97124 0.250627 -1.24654)