/*--------------------------------*- C++ -*----------------------------------*\
  =========                 |
  \\      /  F ield         | OpenFOAM: The Open Source CFD Toolbox
   \\    /   O peration     | Website:  https://openfoam.org
    \\  /    A nd           | Version:  10
     \\/     M anipulation  |
\*---------------------------------------------------------------------------*/
FoamFile
{
    format      ascii;
    class       volScalarField;
    location    "1";
    object      C;
}
// * * * * * * * * * * * * * * * * * * * * * * * * * * * * * * * * * * * * * //

dimensions      [1 3 0 0 0 0 0];

internalField   nonuniform List<scalar> 
75457
(
3.02473e-14
5.03722e-14
5.01209e-13
1.32286e-12
2.34309e-14
4.35948e-14
1.59961e-13
6.69155e-14
3.77162e-12
2.51963e-12
2.34925e-12
5.54269e-14
1.13603e-13
1.31762e-12
9.08309e-43
4.29602e-42
1.0911e-40
3.74986e-41
1.83741e-41
2.06243e-41
1.20154e-41
8.57482e-41
4.70245e-41
1.04564e-40
4.17462e-40
2.34359e-41
5.07069e-42
7.34196e-54
1.60382e-54
1.32204e-54
2.73606e-55
1.42528e-55
4.86187e-56
5.72378e-54
1.08604e-54
3.48924e-54
1.03577e-53
3.05777e-55
1.0273e-55
2.90136e-55
1.12361e-54
9.11291e-56
8.70375e-55
3.06061e-33
5.07755e-33
9.23143e-33
4.02237e-33
2.52805e-33
4.84683e-42
1.76173e-41
5.08029e-41
1.41926e-41
1.76252e-42
7.43316e-42
4.86208e-41
1.5136e-40
8.18493e-42
2.0199e-41
1.22344e-41
3.51622e-42
4.81842e-42
5.17236e-41
0.00595972
0.00999862
0.0103335
0.0150096
0.0305602
0.0227924
0.0173302
0.0136834
0.0274385
0.0202757
0.0111157
0.0229814
0.0250032
0.0140165
0.0213445
1.46379e-47
1.00916e-49
2.99574e-50
9.23298e-47
2.01355e-50
8.16213e-49
2.50171e-50
1.62329e-51
1.37174e-49
3.2092e-49
5.86557e-50
6.91193e-48
4.53749e-47
4.39778e-49
6.80756e-51
2.82254e-48
7.49397e-50
1.47794e-30
4.85969e-30
4.6849e-30
1.42069e-29
1.07874e-30
1.41818e-30
9.05207e-30
3.27357e-30
0.499933
0.499777
0.499967
0.499971
0.499957
0.499848
0.499499
0.499964
0.499968
0.499571
0.499786
0.00223706
0.00252818
0.0090632
0.0050394
0.00239762
0.00428814
0.00406841
0.00323886
0.00333864
0.00552602
0.00705372
0.011872
0.0126741
0.00664508
0.00554661
0.00403891
0.00932362
0.00575294
2.45054e-06
1.64843e-06
1.39293e-06
2.86463e-06
1.49029e-06
8.42415e-06
5.63495e-06
5.1787e-06
2.50725e-06
9.91192e-10
5.42467e-10
7.92951e-10
3.63886e-10
2.90357e-10
2.81313e-10
2.8895e-10
1.43091e-10
1.1837e-16
1.56353e-16
2.85851e-16
3.77421e-16
3.7211e-16
1.04968e-15
5.4378e-16
1.38416e-15
2.57369e-15
9.59351e-16
9.02786e-16
8.7313e-16
6.61039e-16
2.63962e-15
2.08213e-15
0.000235049
0.000414985
0.000694207
0.000311883
0.000519094
0.000137969
0.000159067
0.00026355
0.000226986
0.000303823
0.000243453
0.000131141
0.000135799
1.17961e-19
1.39253e-19
4.23003e-19
9.88233e-20
2.79247e-19
9.06233e-20
5.3433e-20
2.32133e-20
1.56466e-20
4.723e-20
3.29917e-20
1.59433e-20
1.33171e-20
2.63782e-20
3.39394e-23
4.73997e-23
1.33368e-22
9.8201e-24
1.30117e-23
1.76058e-23
1.38511e-10
1.72465e-10
8.59889e-11
1.01285e-10
5.28921e-11
3.51043e-11
1.60373e-10
6.64671e-11
1.03413e-10
1.91238e-11
1.32064e-11
2.46119e-29
1.77782e-29
8.01157e-30
8.40677e-30
2.00393e-29
5.14469e-30
7.07287e-30
1.65521e-30
4.73263e-31
2.36262e-30
6.31867e-30
2.36175e-30
1.59499e-30
9.30717e-31
1.41642e-12
6.00749e-13
5.00469e-13
1.11443e-13
2.54846e-13
1.69328e-13
5.2453e-13
1.16809e-12
4.32143e-13
6.10444e-13
2.75856e-13
9.18163e-14
1.01661e-12
2.20198e-13
1.69969e-32
1.65849e-32
8.61025e-34
2.66471e-34
7.73418e-34
2.89463e-33
5.11596e-33
4.50744e-33
4.45115e-33
1.25812e-34
3.11663e-34
1.62771e-34
1.28145e-33
1.14913e-33
5.5011e-34
5.05195e-34
1.6681e-33
7.83688e-30
7.88088e-30
6.56397e-29
2.17868e-29
1.78955e-28
1.03941e-28
1.6219e-29
9.93744e-29
4.4354e-28
2.54692e-28
2.80812e-29
3.43759e-29
3.6852e-33
1.93255e-33
3.41475e-33
1.3265e-33
6.37676e-33
5.73549e-32
1.42838e-32
2.17127e-32
1.83175e-31
4.71947e-32
1.19213e-32
1.55391e-32
3.63277e-32
5.10707e-21
1.10822e-20
4.41533e-21
1.44529e-19
5.78727e-20
4.15361e-20
2.90901e-20
1.89074e-19
8.83913e-20
1.34734e-20
6.25265e-20
2.00783e-20
1.11394e-19
3.48623e-20
1.07773e-19
6.6288e-60
2.65874e-59
1.45529e-60
2.94902e-60
2.11464e-60
1.17473e-58
2.69431e-59
8.03166e-60
3.47241e-59
7.05431e-64
1.17932e-63
1.16421e-62
3.41812e-63
1.55728e-62
3.32992e-63
7.42828e-63
4.11578e-62
1.0264e-63
2.12184e-63
8.73842e-63
6.20535e-64
2.16314e-63
7.0572e-46
7.8785e-47
1.37502e-47
1.33562e-46
5.17005e-46
3.02168e-46
8.93741e-46
5.67338e-48
1.57044e-47
1.18245e-46
2.38899e-47
4.93575e-33
7.24705e-33
2.15432e-32
8.54837e-33
3.03721e-33
1.03512e-33
1.36523e-33
1.39139e-32
4.44142e-33
1.69054e-32
5.98445e-32
1.23861e-32
3.23085e-33
1.40536e-33
2.75596e-32
1.69131e-33
4.25767e-33
2.46266e-31
2.98966e-32
6.16159e-33
1.03861e-32
1.75819e-31
2.36857e-30
1.03881e-31
3.99849e-32
1.06241e-30
1.39466e-32
5.83575e-32
1.09016e-46
1.98866e-46
1.1891e-45
5.70307e-46
3.19467e-47
1.79571e-46
4.10522e-47
1.42254e-46
2.97021e-46
3.43741e-47
9.78013e-47
9.79785e-59
3.67867e-58
2.42909e-58
1.11623e-57
8.0769e-59
2.67436e-59
1.43463e-58
5.50905e-59
2.70388e-58
6.84576e-58
3.83572e-59
1.68184e-59
2.05744e-58
7.95883e-58
1.92771e-58
2.0072e-44
2.68685e-45
8.02786e-44
3.81887e-44
9.12242e-45
9.41835e-37
3.07642e-36
1.15176e-36
3.2114e-36
5.96689e-36
2.30617e-36
1.57137e-35
4.33203e-08
2.72327e-08
1.44468e-07
8.1339e-08
2.70347e-08
1.57348e-08
7.4774e-08
4.20268e-08
2.18265e-08
1.32206e-08
1.29568e-07
7.74402e-08
3.58104e-08
2.87958e-08
1.9613e-07
6.29825e-08
4.63976e-08
1.34842e-07
2.01867e-07
2.96617e-07
2.89103e-07
1.96595e-07
4.70142e-07
2.67582e-07
4.20907e-07
2.69194e-07
1.34609e-07
2.4138e-07
4.25892e-07
4.87589e-07
2.02337e-07
6.15392e-09
1.48056e-08
4.38598e-08
6.65665e-08
4.07792e-08
2.99916e-08
4.85561e-08
7.42339e-08
5.7584e-09
9.88754e-09
1.61239e-08
1.09006e-08
2.57442e-08
3.99039e-08
2.54635e-08
8.86724e-08
3.19467e-08
2.00755e-08
2.69796e-08
4.22366e-08
1.44323e-08
5.31475e-08
4.15716e-27
4.50191e-27
5.25029e-27
1.21079e-26
1.40512e-26
1.45244e-25
6.57298e-26
1.4417e-25
2.95127e-27
1.17322e-26
5.73428e-27
2.83212e-26
6.49087e-26
8.70872e-27
2.10552e-26
2.20457e-26
2.02131e-12
3.42303e-13
1.83926e-13
1.49015e-13
1.35324e-11
2.11574e-11
7.44565e-13
1.0043e-12
1.62445e-11
2.48251e-11
5.34409e-13
4.84689e-12
1.26293e-12
1.86587e-12
7.93093e-12
9.27488e-12
1.73466e-12
7.02974e-13
1.34722e-12
2.29654e-12
3.15337e-12
5.57749e-12
8.43359e-13
4.20922e-13
1.39457e-12
3.78495e-12
1.12932e-11
6.43326e-12
5.8309e-12
2.40041e-12
2.49975e-12
1.23413e-12
7.14244e-13
1.62601e-12
7.29059e-07
5.18074e-07
2.9131e-07
3.60479e-07
2.23945e-07
9.28744e-08
8.27153e-08
7.51084e-07
2.40861e-07
2.46172e-07
1.6728e-07
1.03865e-07
1.32603e-07
4.58714e-07
6.84563e-07
1.20151e-06
0.000342397
0.000321445
0.00058798
0.000278936
0.000217604
0.000974946
0.00145629
0.000941801
0.00056726
0.00128074
0.000919357
0.000511926
0.000771586
0.000404638
0.000620274
0.00181597
0.0023328
6.42106e-08
1.16714e-07
8.30984e-08
1.38643e-07
7.64521e-08
4.86648e-08
4.01477e-08
5.64377e-08
5.92625e-08
3.34051e-08
3.33898e-08
2.87939e-08
3.24658e-08
2.42788e-08
1.92804e-08
1.41297e-08
2.14279e-08
8.47802e-47
4.13931e-46
1.69668e-45
5.26157e-46
1.14632e-45
1.30906e-46
4.36377e-46
8.84332e-47
4.41481e-45
1.24013e-44
5.05206e-45
1.45158e-45
3.14834e-46
6.24179e-45
5.74779e-45
9.31864e-45
3.87008e-46
1.40968e-45
6.64296e-45
3.0207e-44
7.92333e-45
2.12003e-45
2.01731e-45
3.01295e-45
1.88093e-45
2.1173e-45
4.44688e-46
6.47517e-46
5.70351e-46
1.0482e-46
1.52761e-46
5.15992e-46
3.34463e-42
1.67637e-42
2.90349e-42
3.07455e-41
2.13518e-41
8.3532e-42
2.4873e-42
1.28628e-41
6.16405e-42
1.20405e-41
3.18332e-41
8.89588e-42
2.24583e-41
2.05731e-41
5.60165e-41
3.40869e-41
1.05839e-40
7.3302e-41
3.24782e-09
2.89943e-09
5.21978e-09
5.88129e-09
3.27714e-09
2.89717e-09
6.86967e-09
6.56436e-09
4.79759e-09
1.20234e-08
1.40766e-08
2.577e-09
8.90648e-31
1.40714e-30
1.26224e-29
4.30503e-30
2.60159e-30
1.85832e-30
1.70644e-29
4.19457e-29
4.76415e-30
4.84701e-30
8.38241e-30
7.50817e-29
1.02389e-28
1.56744e-29
2.00962e-29
4.25597e-29
2.61069e-44
1.68033e-44
7.10918e-45
5.62128e-45
3.2969e-45
4.16681e-45
1.99581e-46
2.9316e-46
1.27269e-45
2.19523e-45
2.91332e-45
1.56914e-44
8.71097e-46
7.60388e-46
1.35917e-45
3.58132e-45
6.21895e-12
2.80059e-12
1.05696e-12
3.87312e-12
7.26798e-12
3.16084e-12
7.03469e-12
6.78658e-13
1.56551e-12
2.34008e-12
3.49996e-12
3.37203e-12
7.38396e-12
1.73988e-11
9.4629e-12
1.4652e-12
2.70983e-12
5.84822e-12
1.27397e-12
1.0725e-45
2.49842e-46
2.17483e-47
7.94623e-45
2.88806e-45
4.39997e-46
3.96214e-44
1.3781e-44
1.29365e-46
5.40752e-46
1.74231e-45
1.44791e-44
6.09335e-46
2.85093e-45
3.24808e-52
1.01925e-52
4.06064e-52
7.41466e-52
6.7776e-53
4.56361e-51
2.97338e-51
1.57779e-51
4.51251e-51
3.04807e-50
4.24458e-51
2.20947e-50
1.45107e-49
7.67879e-51
3.43513e-50
6.11744e-51
1.53935e-51
6.54718e-50
1.51546e-14
6.14482e-15
1.11524e-14
1.48474e-14
3.08269e-14
3.00697e-15
6.43107e-15
6.82403e-15
1.33283e-14
4.70931e-15
2.88867e-15
3.2422e-46
7.81293e-46
2.36955e-45
7.85354e-46
4.21737e-46
1.66812e-45
1.9052e-46
5.44322e-46
2.12036e-46
4.56699e-46
2.60023e-45
1.66132e-45
5.633e-46
2.27485e-45
6.61506e-46
1.76534e-45
2.15295e-46
1.42607e-45
3.59522e-46
9.25883e-46
1.1488e-46
2.71941e-24
3.59909e-24
2.33601e-23
8.89197e-24
9.93383e-24
5.06764e-25
1.06148e-24
6.72904e-24
1.5474e-23
1.36986e-24
2.35722e-25
5.34415e-25
2.39064e-24
3.34766e-24
1.45547e-24
6.63388e-25
4.47383e-24
1.69344e-42
7.23066e-43
1.44251e-42
4.26411e-43
4.45533e-42
1.62471e-42
1.36195e-42
5.34812e-43
2.90949e-42
8.64752e-43
2.52291e-42
1.15915e-46
2.75432e-47
2.65439e-47
3.44299e-48
4.76964e-47
5.16127e-49
6.04135e-49
2.19403e-47
6.61859e-48
4.78401e-48
6.42698e-49
5.09718e-49
2.9465e-48
2.06304e-46
5.14534e-47
1.54207e-47
6.74982e-47
8.18656e-47
1.67346e-47
1.28652e-46
2.81469e-47
2.64181e-47
1.21089e-46
3.79305e-48
1.54885e-47
6.25252e-47
7.30717e-48
1.14236e-47
3.27491e-48
1.55978e-48
4.03082e-48
1.19293e-48
2.43069e-48
6.89052e-48
1.25166e-48
3.09833e-37
2.46729e-37
2.43659e-37
7.1376e-38
4.91898e-38
1.25818e-38
1.00779e-37
2.1413e-38
1.65126e-38
1.97905e-39
7.74228e-40
4.57813e-39
1.81635e-38
7.17198e-39
5.33187e-39
4.49828e-39
1.24806e-39
3.98513e-40
1.32298e-38
2.79863e-39
4.37891e-40
4.92013e-40
1.08109e-39
1.03933e-39
1.37263e-40
1.61385e-40
2.87625e-40
2.84647e-40
4.2116e-40
2.54323e-41
6.41225e-41
4.2343e-41
1.28214e-41
5.59808e-41
1.83559e-40
5.14621e-41
6.65027e-42
1.73063e-41
9.46153e-41
8.90644e-41
1.02492e-41
4.14677e-41
2.62629e-44
5.22676e-44
9.19498e-43
1.71098e-42
2.15647e-43
1.87284e-43
5.05013e-44
7.53993e-44
2.1792e-44
1.34286e-44
5.69567e-44
1.50896e-43
5.8069e-43
2.98636e-43
2.12415e-43
3.05399e-44
1.05283e-43
2.05806e-30
9.58531e-31
2.17309e-30
4.01752e-30
3.95e-30
6.29354e-31
1.86923e-30
1.38837e-30
3.27295e-30
1.39985e-30
6.50753e-31
6.94314e-31
3.25842e-31
4.93719e-31
1.19574e-06
5.04689e-06
8.60064e-06
1.53483e-06
2.77849e-06
4.4571e-06
7.62598e-06
2.21449e-06
3.26709e-06
6.11854e-06
1.62601e-31
5.24591e-32
6.78251e-33
2.32895e-32
2.79063e-32
6.51392e-32
6.35045e-32
1.98835e-31
9.02491e-33
1.21125e-32
1.04631e-32
2.96114e-32
3.29244e-32
1.01058e-32
8.67109e-32
7.92438e-32
2.97656e-32
4.82412e-30
1.54496e-29
2.4884e-30
8.98122e-30
2.20397e-30
6.64722e-31
2.00037e-29
6.03986e-30
2.22756e-30
4.01294e-30
3.03002e-30
1.4173e-30
1.17415e-29
3.00467e-30
1.44229e-29
6.57759e-31
7.39506e-31
4.51156e-31
1.62923e-30
3.70591e-31
2.95183e-07
1.22245e-07
7.93209e-08
1.54348e-07
1.76656e-07
6.13275e-08
5.46148e-07
6.33446e-07
4.24917e-07
3.81154e-07
2.75426e-07
1.02017e-07
2.33116e-07
1.30022e-07
2.27179e-07
1.70726e-07
2.05229e-17
5.56624e-18
2.02142e-18
5.83282e-18
5.03815e-17
4.93633e-18
1.18879e-16
9.30128e-17
1.33005e-17
7.62195e-18
4.409e-17
1.9133e-17
4.25057e-17
8.78204e-34
1.67168e-33
1.80198e-33
6.09787e-33
2.60931e-33
8.57465e-34
3.43046e-33
4.32696e-33
2.06353e-33
1.67135e-32
5.80046e-33
9.34302e-33
6.63068e-10
6.28817e-10
3.368e-10
3.33398e-10
2.73729e-10
2.18227e-10
1.1902e-10
6.42945e-11
9.93007e-11
1.95483e-10
3.65676e-10
1.9271e-10
4.61744e-10
2.43129e-10
9.77102e-10
3.41874e-10
1.15578e-10
6.01541e-10
1.7878e-10
2.76566e-28
8.57367e-29
1.00727e-28
3.91064e-29
3.57558e-29
2.3513e-28
7.08896e-29
2.65569e-29
1.86144e-28
3.84845e-29
1.04622e-28
1.04429e-29
2.36274e-28
6.57433e-29
3.03281e-28
3.85227e-29
9.03284e-29
2.13344e-29
2.35615e-28
6.26784e-49
2.10106e-48
4.13697e-48
1.28137e-48
2.7261e-48
8.39483e-48
1.09101e-48
8.31124e-49
1.38333e-48
1.13502e-47
4.55119e-47
1.26263e-47
1.83768e-47
5.30908e-48
6.55724e-47
1.83989e-47
2.13361e-07
2.70576e-07
1.27778e-07
1.10925e-07
1.15381e-07
2.03853e-07
4.90973e-07
1.97414e-07
2.34035e-07
4.22873e-07
3.09643e-07
1.61437e-07
3.76965e-07
7.05886e-07
1.72421e-06
8.81177e-07
7.36957e-18
5.45795e-18
1.99624e-18
1.90951e-18
1.91023e-17
1.31792e-17
6.65749e-19
1.7622e-18
4.30315e-18
1.08224e-17
1.69936e-18
4.51167e-18
5.58504e-18
3.38679e-17
4.46307e-17
1.28715e-18
8.16548e-18
3.23769e-18
1.13542e-17
1.63887e-17
0.00193146
0.0110627
0.0096364
0.00737206
0.00227988
0.00434017
0.0089991
0.00736221
0.00809267
0.00759666
0.0115178
0.00550272
0.0129111
0.01021
0.00470191
1.16195e-09
2.86291e-09
2.14855e-10
5.26309e-10
1.16182e-09
2.25507e-09
2.6632e-10
4.10439e-10
5.0836e-11
5.7857e-11
1.52626e-10
1.09437e-10
1.19023e-10
3.26621e-10
6.79736e-18
1.16639e-17
3.73153e-17
2.55736e-17
3.00506e-18
6.27789e-18
1.87617e-17
1.94265e-17
6.29902e-17
9.24397e-17
4.78615e-17
4.98402e-17
1.62327e-17
8.57563e-18
4.59014e-17
2.00992e-17
5.17875e-40
1.67107e-40
6.07848e-40
2.24076e-39
6.89298e-41
2.00469e-40
4.56449e-40
1.59621e-39
3.82708e-39
1.20231e-40
4.87585e-41
2.3262e-40
5.72023e-40
3.19701e-39
3.17109e-41
7.41434e-40
1.8346e-40
1.64982e-39
4.3773e-40
6.45974e-27
1.02988e-27
5.09363e-28
5.84841e-27
2.30973e-26
1.34735e-28
3.33218e-27
3.23457e-27
1.47422e-26
4.83701e-27
9.51399e-28
7.96068e-28
5.64581e-27
1.78792e-27
1.09182e-27
4.22275e-28
7.09708e-26
2.06731e-26
1.52656e-27
5.75448e-27
3.99555e-26
9.82328e-27
2.47427e-27
1.13896e-27
1.25786e-26
0.0275334
0.00951723
0.00633923
0.0243378
0.0383772
0.00983513
0.00781572
0.0123998
0.0141431
0.00981362
0.0137885
0.00935744
0.0292886
0.0187509
0.0290942
0.0273211
0.0177406
0.0122858
0.00958344
0.0220623
6.83043e-18
3.52114e-18
4.51622e-18
1.33042e-18
2.70063e-18
5.34395e-18
3.04999e-18
1.44603e-18
2.99167e-18
1.11415e-18
5.15506e-19
1.02824e-18
5.10275e-43
1.09934e-42
3.77285e-44
3.4847e-44
9.00948e-45
1.10193e-42
9.57949e-43
4.22945e-43
1.0644e-43
1.17347e-43
1.31885e-44
2.54198e-44
3.91048e-44
7.48629e-44
1.31676e-43
1.3458e-43
2.79125e-43
4.38752e-43
1.25549e-48
1.72724e-49
5.7801e-49
5.20139e-50
3.3523e-49
2.23741e-47
5.85785e-48
5.54718e-48
1.17097e-48
8.36557e-50
2.90188e-49
1.65713e-48
8.90116e-47
1.98585e-47
5.30272e-48
1.59622e-48
1.45189e-47
3.15676e-48
2.6465e-49
2.36841e-50
9.79333e-50
6.90443e-50
6.27896e-51
1.15252e-49
9.04439e-51
2.05253e-51
5.59461e-49
3.88054e-50
1.59848e-49
3.91706e-50
8.1445e-51
3.86045e-51
2.60202e-50
6.93877e-49
1.76125e-49
1.92021e-43
2.208e-43
4.41464e-43
2.38215e-42
5.13513e-43
2.64347e-43
9.37299e-43
1.33173e-42
1.84042e-43
3.273e-27
1.45347e-27
3.60821e-28
8.89164e-28
7.52512e-29
1.78233e-28
8.62244e-29
1.39998e-28
2.78146e-28
4.14406e-28
3.67126e-29
1.53954e-28
1.24836e-43
3.47891e-44
6.18681e-44
5.20624e-44
1.60091e-43
4.71697e-43
1.25988e-43
2.02242e-43
6.93557e-43
5.595e-43
1.41298e-42
2.87463e-43
2.1893e-43
5.97983e-43
8.5481e-43
9.12523e-43
8.60023e-05
4.58821e-05
0.000137399
6.15533e-05
4.79353e-05
2.75393e-05
4.03699e-05
4.92283e-05
9.5564e-05
0.000157388
5.61192e-32
1.83707e-32
2.00503e-31
2.15294e-31
1.03807e-31
3.36787e-32
6.21652e-31
4.59981e-31
2.76896e-33
1.42409e-31
2.02865e-32
1.18668e-32
5.91604e-32
8.40269e-32
2.48518e-32
3.66366e-33
6.00273e-33
2.614e-31
4.73224e-40
1.04755e-39
1.27601e-40
1.45789e-39
4.70792e-39
4.68601e-40
2.77925e-40
7.1839e-41
2.28715e-39
2.44673e-38
7.71945e-39
1.95176e-39
6.33645e-40
9.65475e-39
4.28406e-40
1.14763e-39
3.23896e-39
1.07717e-39
6.9238e-10
3.58482e-10
1.60954e-10
3.19533e-10
1.37042e-10
6.80069e-11
1.65463e-09
7.20412e-10
1.72473e-10
9.02529e-10
3.40877e-10
1.86592e-10
3.79369e-10
1.75429e-10
0.215308
0.196441
0.177559
0.162971
0.267105
0.156447
0.139273
0.175798
0.235333
0.205688
0.253927
0.292529
0.12125
0.132931
0.168396
0.201828
0.26313
0.239763
0.202687
0.167039
4.88058e-16
1.67287e-16
6.3176e-16
1.87936e-15
8.94743e-16
8.41927e-17
3.74504e-16
7.13403e-18
3.48035e-15
2.64717e-15
1.99146e-16
1.71014e-15
3.11953e-16
6.55122e-18
1.19636e-15
1.09907e-15
4.37223e-15
3.78352e-15
3.81781e-15
1.69232e-12
3.74961e-12
1.05881e-12
1.86734e-12
1.1275e-13
1.43927e-13
4.22128e-13
2.98155e-13
8.16731e-13
5.84742e-13
5.45296e-13
3.10597e-12
2.70726e-12
2.5306e-13
2.68469e-13
2.35804e-13
7.66878e-13
8.71227e-13
1.63133e-12
6.39817e-13
6.13056e-51
3.59091e-50
3.79662e-51
1.44261e-49
1.86867e-50
6.21334e-51
1.37859e-50
2.05889e-50
7.67673e-50
2.02453e-50
1.75466e-51
9.60906e-51
1.62947e-50
1.00556e-49
6.81579e-50
3.77287e-50
1.38566e-48
3.35316e-49
3.17579e-49
2.20261e-32
1.05537e-32
1.77541e-33
7.54714e-34
5.84637e-33
8.07443e-33
4.98686e-32
2.11713e-32
8.1267e-33
3.42122e-32
1.41567e-32
3.44612e-33
2.57373e-33
5.28483e-33
8.81101e-34
1.02649e-33
0.493543
0.489674
0.491069
0.496243
0.497674
0.495348
0.498853
0.49977
0.499744
0.499358
0.498936
0.498228
0.49988
0.499136
0.498596
0.498842
0.499468
0.499314
0.499646
0.497246
9.66203e-14
1.04604e-13
2.61326e-13
1.7299e-13
7.38918e-14
3.5103e-14
4.2626e-14
2.64063e-14
4.43704e-14
1.06937e-13
7.54422e-14
2.08406e-14
2.24496e-14
1.38061e-14
9.39785e-15
6.54703e-15
3.34071e-14
1.47361e-14
1.46303e-14
4.23993e-14
0.49728
0.49968
0.499818
0.49996
0.49987
0.496895
0.495732
0.499551
0.499778
0.499401
0.499588
0.4991
0.499983
0.499177
0.499995
0.49999
0.499951
4.74662e-43
2.53823e-43
1.70781e-42
5.21397e-43
1.54338e-42
5.62486e-43
1.99842e-43
1.6284e-42
1.29667e-43
5.92259e-43
1.78849e-43
7.37009e-44
0.227794
0.201571
0.378034
0.353484
0.292045
0.242438
0.166637
0.182861
0.305033
0.378597
0.322203
0.256749
0.290248
0.319224
0.193846
0.275192
0.254849
0.326366
0.364016
0.228792
0.272234
5.24614e-05
2.90694e-05
4.0157e-05
7.12569e-05
0.000110684
2.5914e-05
5.29443e-05
0.000241841
0.000203746
0.000206253
0.000174183
0.000117546
6.0366e-05
5.2593e-05
7.62977e-05
0.000128333
0.000157375
9.5022e-05
6.13118e-07
3.20603e-07
1.36952e-06
8.92947e-07
5.08989e-07
1.12026e-06
2.4927e-06
3.94288e-06
1.05738e-06
2.10361e-06
7.01438e-06
3.50895e-06
3.83e-06
1.89542e-06
1.81459e-06
0.000149184
0.000322251
0.000275135
0.000142205
9.54696e-05
0.000728435
0.000560429
0.000459052
0.000147941
0.000332534
0.000331668
0.000391447
0.000938562
0.000735259
4.42512e-16
1.15965e-15
1.88446e-16
1.06763e-16
4.25196e-16
1.73238e-16
3.50558e-15
1.25204e-15
2.49486e-16
4.46325e-16
1.0195e-15
3.19601e-15
6.01008e-15
1.16418e-15
1.93444e-15
8.52797e-16
0.00535141
0.00501017
0.00774627
0.00421341
0.00301555
0.00509637
0.0042207
0.00339556
0.00766041
0.00633518
0.00900785
0.00963987
0.00577822
0.0172432
0.0139048
0.0115033
0.0090969
0.477161
0.479699
0.429453
0.454773
0.464985
0.481105
0.491861
0.489337
0.453656
0.471203
0.491019
0.497162
0.494822
0.493916
0.487661
0.494168
0.488405
1.50711e-11
2.00452e-11
1.24091e-11
3.11485e-11
3.65063e-11
4.27974e-12
4.8837e-12
1.19849e-11
2.83305e-12
2.0823e-12
5.61636e-12
9.81692e-12
6.0877e-12
2.18115e-11
1.42879e-24
8.90347e-25
3.48977e-27
2.16702e-24
8.26131e-08
1.33169e-07
5.03188e-07
2.69629e-07
1.59418e-07
6.4885e-08
4.3509e-08
3.15374e-07
6.34442e-07
3.01786e-07
2.96349e-07
4.74903e-07
8.4507e-08
6.73917e-08
3.74965e-08
2.55085e-07
7.33944e-08
1.58925e-07
4.23947e-08
1.54927e-07
1.35776e-07
8.86344e-08
2.43657e-43
8.23805e-44
3.74261e-43
2.24991e-43
8.09177e-45
1.42847e-44
2.29057e-45
4.47858e-46
5.11139e-44
7.26775e-44
3.78692e-44
1.53379e-45
1.20855e-45
1.06087e-45
1.88524e-45
1.16012e-44
1.45295e-44
8.16105e-44
3.23415e-45
3.83387e-45
4.85012e-44
1.67462e-44
2.68382e-45
6.44623e-45
4.99816e-44
2.14149e-44
4.68751e-45
6.51315e-46
8.54752e-46
1.33343e-46
4.39045e-45
6.47003e-46
7.71852e-45
8.80909e-45
2.19306e-45
2.16464e-45
1.77441e-46
6.31883e-46
9.49681e-43
2.12692e-42
9.34093e-42
2.35861e-42
1.26266e-41
4.84135e-41
5.15494e-42
1.88571e-41
3.02136e-43
2.4828e-41
8.7762e-42
2.07709e-41
2.66658e-42
2.52887e-42
7.84727e-43
3.47864e-41
1.69122e-41
5.01096e-42
7.14271e-42
2.35377e-24
5.35347e-24
1.63212e-24
3.88469e-25
3.65643e-23
4.13457e-23
1.78212e-25
6.08719e-25
5.19446e-22
1.11177e-22
1.84492e-21
2.65852e-22
6.77505e-22
1.25135e-23
3.57943e-23
9.71783e-25
2.96463e-25
2.10959e-24
1.00219e-23
1.02935e-22
2.38758e-23
3.97091e-22
2.09943e-12
6.68378e-13
2.92141e-13
6.6969e-13
1.0663e-12
3.11481e-12
2.98778e-12
9.63593e-13
4.6682e-13
1.64701e-13
2.91606e-13
4.90762e-13
2.68362e-13
4.5518e-13
1.45405e-12
1.91313e-12
9.2712e-13
1.86137e-13
6.53115e-13
2.08309e-28
6.24488e-29
3.85855e-29
9.35868e-29
2.80146e-28
8.2529e-29
2.4451e-28
8.35142e-28
1.13013e-28
7.98711e-28
2.13904e-28
5.84913e-30
2.07736e-29
1.2138e-29
5.59798e-29
1.56803e-29
3.29909e-29
5.771e-17
2.42087e-17
2.60031e-17
4.15428e-17
2.38193e-17
1.19664e-17
5.14682e-18
1.00599e-17
1.10685e-17
2.57254e-18
1.90854e-17
1.08524e-17
2.24625e-18
7.9094e-18
4.95324e-47
2.24129e-46
4.45038e-46
8.39147e-46
2.52049e-45
2.86631e-45
1.11802e-46
5.68323e-46
9.26408e-45
3.22128e-44
4.19035e-44
4.24677e-46
2.22166e-45
5.98638e-45
7.45548e-45
3.80351e-46
1.50504e-45
4.6042e-58
2.18882e-57
1.07741e-57
3.63579e-58
7.04521e-58
2.63671e-57
1.89813e-58
6.36504e-58
3.66814e-57
1.01938e-57
5.64187e-57
3.08896e-57
3.73013e-57
9.17666e-57
9.0811e-59
9.00125e-58
2.24562e-56
1.35758e-56
2.48095e-56
2.31259e-57
7.3823e-58
2.68662e-58
4.71559e-58
8.98954e-59
1.36615e-58
3.18953e-59
2.14751e-58
2.29248e-58
9.16113e-59
7.79233e-58
1.99879e-57
3.98118e-58
1.1703e-57
1.89331e-57
5.35634e-57
5.06959e-57
7.0737e-57
1.66867e-56
5.30771e-58
1.89439e-57
6.6704e-39
8.13857e-39
8.28269e-38
1.123e-37
1.56195e-37
3.38264e-37
2.30272e-38
7.02661e-38
2.74967e-38
4.05207e-39
8.89602e-39
3.75443e-38
3.8812e-37
1.97047e-37
4.60894e-38
2.01146e-37
1.52489e-38
3.34876e-13
1.74503e-13
1.40794e-13
2.78788e-13
1.62849e-13
1.11359e-13
6.14942e-14
4.34489e-13
2.71798e-13
1.08423e-13
5.36983e-36
5.14873e-36
1.23853e-34
3.86219e-35
1.00387e-34
6.43597e-35
6.25757e-35
1.39781e-34
4.16463e-34
1.24062e-34
7.31873e-34
6.07376e-34
2.45455e-34
1.25974e-35
1.00061e-35
2.56271e-35
2.0319e-34
6.25475e-35
1.64685e-30
4.27372e-31
5.47396e-31
1.78847e-31
4.33498e-30
1.19419e-30
7.51553e-32
1.83821e-31
6.15106e-31
2.26299e-31
7.32323e-31
1.80062e-30
2.18943e-30
1.17263e-55
2.95196e-56
1.86241e-55
4.47302e-56
5.75183e-56
8.79686e-55
1.37705e-55
3.36391e-56
1.89585e-56
7.21946e-56
5.595e-55
8.50656e-56
8.62301e-57
2.24089e-56
6.18695e-33
8.42846e-33
1.72435e-33
2.35059e-33
1.81313e-33
7.607e-34
6.40513e-34
1.45219e-33
4.43581e-34
1.25441e-34
1.56522e-34
4.85248e-34
5.97856e-35
1.47589e-34
2.19026e-34
1.93299e-46
1.70171e-45
1.60535e-46
1.54002e-45
1.08959e-43
1.45551e-44
4.39335e-42
3.61221e-41
3.28477e-44
1.21205e-43
8.52685e-43
5.01647e-42
1.73712e-44
8.83646e-43
1.3972e-43
1.48718e-43
4.32107e-42
3.978e-43
0.479501
0.492218
0.492025
0.471582
0.483759
0.482268
0.490158
0.464291
0.488762
0.474367
9.11677e-23
6.9917e-23
1.94509e-23
2.23054e-23
2.17187e-22
8.24599e-23
1.95801e-22
6.69552e-22
5.41861e-22
2.27979e-22
2.39737e-22
1.07613e-23
6.977e-24
6.98822e-23
4.99167e-23
1.37251e-22
6.34199e-23
2.9849e-23
1.23532e-23
1.53544e-23
6.55573e-24
4.12986e-23
3.01891e-50
3.4502e-50
1.0146e-49
1.00092e-49
8.85726e-51
9.05039e-51
3.39553e-50
7.18458e-50
2.47384e-49
5.35332e-51
5.40166e-52
1.68687e-51
2.34671e-50
1.74275e-50
5.82154e-50
6.77804e-51
7.32912e-51
2.32716e-51
0.0180341
0.0157211
0.0111101
0.0173095
0.0101299
0.00819804
0.0109031
0.00786992
0.00691515
0.00602275
0.00539689
0.00898231
0.0147292
0.00909943
0.00582667
0.00331979
0.00383352
0.00268877
0.00566574
1.17904e-13
3.92272e-14
5.15189e-13
1.60141e-13
1.08245e-13
4.39076e-14
3.59593e-14
9.98789e-15
5.67984e-15
3.18875e-15
2.63568e-14
1.28079e-14
2.74635e-13
5.68322e-14
1.81173e-15
1.13692e-15
7.96479e-15
8.24563e-15
0.495676
0.496893
0.492103
0.488051
0.499729
0.499221
0.499418
0.498432
0.49727
0.499915
0.499439
0.499727
0.4996
0.499878
0.499974
0.499955
1.00733e-06
4.91003e-06
3.18197e-06
1.74618e-06
3.0269e-06
1.77629e-06
1.75435e-06
1.04388e-06
3.05622e-06
2.1022e-06
1.09625e-06
1.2179e-06
6.87349e-07
6.57916e-05
4.24351e-05
8.74679e-05
0.000130501
6.43592e-05
5.62745e-05
0.000257642
0.000142358
0.000341765
0.000215252
0.000349923
0.000155032
9.89883e-05
0.000194667
0.000122002
2.58422e-06
1.28077e-06
1.52387e-06
8.78191e-07
2.85312e-06
1.5547e-06
1.70351e-06
7.56342e-07
4.74203e-06
2.82838e-06
4.08087e-06
8.25234e-07
3.96058e-06
6.87171e-06
1.4403e-06
1.65829e-06
0.110832
0.0901284
0.0934007
0.0728725
0.070231
0.0735625
0.0524838
0.0471684
0.0617773
0.110277
0.14975
0.176308
0.16077
0.0787164
0.0717986
0.0702571
0.138027
0.10627
0.0917812
0.0986661
3.46718e-13
2.04575e-13
2.01913e-13
1.03976e-13
7.20585e-14
1.48564e-12
4.46978e-13
6.07362e-13
2.99531e-12
2.82333e-12
3.28743e-13
1.08704e-12
1.11793e-12
1.69745e-13
2.34648e-13
1.16457e-11
2.84766e-12
4.67697e-13
9.56196e-12
2.54963e-12
2.95153e-11
5.79955e-12
1.27277e-12
7.60102e-12
5.87812e-12
1.55699e-10
3.04837e-11
1.51884e-11
3.46888e-11
7.15128e-11
1.57316e-10
9.75946e-11
7.12259e-11
0.26577
0.22402
0.216265
0.156079
0.286772
0.259492
0.160662
0.135688
0.207717
0.244224
0.0913401
0.0949166
0.10254
0.127299
0.180211
2.81122e-37
3.14208e-37
1.28548e-36
3.7693e-36
1.87423e-36
6.14367e-37
2.09944e-37
3.62844e-37
1.92909e-37
0.0467468
0.0660012
0.0431012
0.0350337
0.0698129
0.0222892
0.0208242
0.045994
0.0208173
0.0131493
0.0137543
0.0153787
0.0223545
0.0305305
0.0326134
0.0190572
0.023049
0.0326564
0.043385
0.06253
0.0274702
0.0407218
2.93639e-10
1.972e-10
3.77395e-10
1.36777e-10
9.37269e-11
1.72823e-10
1.8062e-10
1.08457e-10
2.37035e-10
6.36099e-11
9.87702e-11
6.23148e-11
7.01208e-11
3.42434e-11
1.70969e-11
2.57185e-11
4.45141e-11
8.1937e-11
3.96685e-11
3.57268e-11
1.94743e-05
1.6646e-05
9.16939e-06
5.63344e-06
1.01144e-05
8.05935e-07
6.0597e-07
2.5191e-06
1.7056e-06
1.10554e-05
4.94592e-06
2.3748e-06
3.81167e-06
1.93993e-06
1.18525e-06
4.95671e-06
2.66686e-06
4.42819e-06
9.54632e-07
5.14895e-06
2.73718e-06
1.30648e-06
2.78072e-06
4.89379e-07
5.22863e-07
1.41232e-06
1.95214e-25
4.16045e-25
2.52757e-25
8.31918e-26
6.45782e-24
2.81059e-24
7.69577e-25
2.0748e-24
8.6504e-25
1.20409e-23
6.84814e-24
6.35764e-26
1.70672e-25
8.44691e-26
1.20522e-25
2.14414e-24
1.06834e-25
3.2037e-26
3.60066e-25
3.91799e-25
1.21456e-24
4.09671e-24
3.00482e-24
7.5798e-25
1.02859e-24
3.71563e-25
2.94188e-17
1.53047e-17
7.64016e-17
2.96068e-17
2.52112e-17
5.38833e-17
1.32056e-16
2.68429e-17
1.07077e-16
1.53747e-17
3.97152e-17
1.22055e-17
5.36177e-18
5.47093e-17
1.32858e-16
1.32926e-16
3.06833e-16
2.96846e-17
5.90789e-09
4.99402e-09
2.58635e-09
4.22265e-09
3.09881e-09
1.55449e-09
1.59507e-09
3.34494e-09
3.87478e-09
2.50251e-09
1.13024e-09
1.89615e-09
2.11241e-09
0.00160663
0.0031291
0.00161831
0.00144356
0.00233719
0.00503892
0.00839438
0.0045541
0.00388543
0.00307973
0.00270589
0.00435778
0.00370312
7.73623e-33
2.99042e-33
4.32673e-33
2.68534e-33
1.30561e-33
1.95124e-33
8.32309e-34
4.69665e-34
5.05101e-34
5.22843e-33
9.3037e-34
6.6001e-34
2.05682e-33
3.41339e-33
8.12468e-34
1.53583e-33
1.15784e-33
3.68826e-34
1.23101e-33
5.44869e-34
7.38117e-33
3.55915e-33
1.58291e-33
4.00867e-33
2.67977e-32
2.01897e-32
7.0985e-33
1.13442e-32
2.60189e-31
3.51034e-31
9.35131e-31
9.60208e-31
2.40387e-30
1.03265e-30
5.56845e-30
2.35478e-30
1.48866e-29
4.37904e-30
9.33492e-30
2.77644e-30
2.7211e-30
3.41478e-30
1.10489e-29
1.0868e-29
1.26916e-28
1.36469e-28
1.26964e-30
1.85837e-30
3.33178e-29
4.69245e-29
3.87146e-30
5.89587e-30
8.34057e-30
2.18863e-29
5.20717e-29
9.89704e-29
1.247e-29
2.37667e-29
1.70028e-48
6.74587e-48
1.28231e-46
2.04604e-47
2.64803e-47
1.07087e-46
1.31114e-46
2.62553e-48
6.69673e-48
2.63286e-47
1.02058e-47
2.81944e-06
3.09445e-06
5.07117e-06
2.00776e-05
3.71362e-05
9.77513e-06
1.90327e-05
9.29267e-06
1.44027e-05
2.04849e-05
5.99915e-06
6.10787e-06
8.29838e-06
4.79831e-10
7.35406e-10
3.58331e-10
6.07602e-10
5.50335e-10
1.93803e-09
9.49395e-10
1.17452e-09
1.95513e-09
9.98407e-10
3.81589e-09
1.73102e-09
2.56848e-09
4.36117e-09
1.80819e-09
7.35751e-09
2.86257e-09
3.26489e-09
4.02388e-09
1.01211e-08
1.72417e-09
7.80646e-09
4.4385e-06
7.94407e-06
3.64713e-06
5.10451e-06
1.15609e-05
7.80749e-06
1.5499e-05
8.96929e-06
3.30912e-05
1.3153e-05
2.38312e-05
4.92142e-07
8.69664e-07
3.52046e-07
4.55444e-07
9.74365e-07
1.68423e-06
1.04077e-06
2.0512e-06
9.54652e-06
5.81026e-06
1.26111e-06
1.01456e-06
2.96433e-06
7.31835e-06
4.55789e-06
2.84619e-06
2.80971e-06
5.48667e-06
2.19674e-06
0.418301
0.383819
0.460174
0.376804
0.355836
0.439558
0.471216
0.410418
0.445245
0.456604
0.358235
0.442542
0.386713
3.11876e-11
5.61627e-11
5.35055e-11
3.19538e-11
9.89504e-11
9.98959e-11
1.49083e-10
2.00508e-10
2.19554e-10
6.27312e-11
1.05592e-10
3.73249e-11
2.17933e-11
5.69388e-11
2.46511e-10
2.14171e-11
3.93848e-11
1.45718e-11
5.27425e-11
3.06188e-11
8.5195e-11
6.46592e-27
1.47086e-26
1.53074e-26
4.6483e-26
1.22037e-26
4.12988e-27
8.81118e-26
9.2516e-26
1.35971e-25
4.50216e-26
3.31755e-25
3.37252e-25
1.27818e-26
3.4329e-26
2.52147e-26
4.99982e-26
3.28125e-26
1.06191e-25
5.9314e-26
1.74704e-26
7.03287e-27
2.84993e-27
2.08051e-26
7.75788e-27
5.05573e-26
7.80557e-27
3.21488e-27
2.29567e-26
6.47203e-26
3.52406e-26
4.09045e-26
1.39885e-26
9.57253e-28
2.89829e-28
2.64366e-27
1.08021e-27
1.46867e-28
7.98137e-27
1.16439e-26
3.05859e-27
9.45088e-28
2.2765e-27
4.29483e-28
1.46942e-27
3.61683e-27
3.24038e-47
5.38967e-47
1.97777e-46
1.15625e-46
5.34815e-46
5.19586e-15
2.24644e-15
1.26608e-14
2.75793e-14
1.52348e-14
1.09724e-14
4.52053e-15
4.54103e-15
9.06096e-15
2.57829e-14
1.89812e-14
9.31497e-15
6.1959e-14
4.63458e-14
2.95667e-14
1.06473e-53
4.45412e-53
1.83385e-51
3.40976e-52
8.0327e-54
3.92126e-51
6.86263e-51
2.10152e-54
1.69368e-54
2.89275e-52
1.27476e-51
9.45681e-54
7.16575e-53