/*--------------------------------*- C++ -*----------------------------------*\
  =========                 |
  \\      /  F ield         | OpenFOAM: The Open Source CFD Toolbox
   \\    /   O peration     | Website:  https://openfoam.org
    \\  /    A nd           | Version:  10
     \\/     M anipulation  |
\*---------------------------------------------------------------------------*/
FoamFile
{
    format      ascii;
    class       volScalarField;
    location    "1";
    object      eff_dif;
}
// * * * * * * * * * * * * * * * * * * * * * * * * * * * * * * * * * * * * * //

dimensions      [0 2 -1 0 0 0 0];

internalField   nonuniform List<scalar> 
75457
(
-0.0510863
-0.0448973
-0.0396065
-0.0360193
-0.026623
-0.0310716
-0.0450325
-0.0455267
-0.0278424
-0.0205784
-0.0254075
-0.0288986
-0.0292147
-0.0246054
-0.00128267
-0.00161189
-0.00201887
-0.00162455
-0.00198631
-0.00191943
-0.00143867
-0.00202927
-0.00164152
-0.00186903
-0.00198484
-0.00210788
-0.00174771
0.000407557
0.000435537
0.000470173
0.00036946
0.00051211
0.0003241
0.000271228
0.000359271
0.000419574
0.000392408
0.000407982
0.000261661
0.000205599
0.000173292
0.000220096
0.000314449
-0.00700241
-0.0055637
-0.00574184
-0.00611031
-0.00682636
-0.00257631
-0.00329214
-0.00349919
-0.00305225
-0.00283335
-0.00304954
-0.00351064
-0.00352149
-0.00318313
-0.00342581
-0.00303739
-0.00317236
-0.00302131
-0.00287454
0.0284448
0.0287292
0.028489
0.0288152
0.0290552
0.0290526
0.0286792
0.0287553
0.0290279
0.0288634
0.0284989
0.0288699
0.0288091
0.0285014
0.0287379
0.000457642
-0.00543154
0.000207917
-0.00675219
-0.0149486
0.00409746
0.00662346
-0.00319895
-0.00713044
-0.00779294
-0.00334298
0.00159566
-0.00315545
0.00108955
0.00399391
-0.00157002
-0.00311866
-0.00498217
-0.00498997
-0.00502709
-0.00504495
-0.00505937
-0.00493571
-0.00524431
-0.00506315
0.0293545
0.0292446
0.0295046
0.0295202
0.0293867
0.0292384
0.0291583
0.0296081
0.0296102
0.0292246
0.0292353
0.0198473
0.0205721
0.0230145
0.0225742
0.0199579
0.0215798
0.0215423
0.0209756
0.0213714
0.0231003
0.0228887
0.0234362
0.0239271
0.0227757
0.0221477
0.0209123
0.023386
0.0223771
0.0130026
0.0128855
0.0125501
0.0132312
0.0128985
0.0140689
0.0138472
0.0137722
0.0137388
0.00859738
0.00831952
0.00869268
0.00826191
0.00792594
0.00817098
0.00822572
0.00756539
-0.00409112
-0.00402676
-0.00354712
-0.00361266
-0.00409088
-0.0037388
-0.00352877
-0.00297175
-0.00160056
-0.00183696
-0.00295983
-0.00269123
-0.00237765
-0.0028218
-0.00188075
0.0145297
0.0160783
0.0163527
0.0157157
0.0161617
0.0124933
0.0138927
0.015413
0.0143779
0.0154249
0.0128121
0.0114633
0.0121008
-0.00632061
-0.00683896
-0.00654359
-0.00673898
-0.00637405
-0.00680001
-0.00617292
-0.00679689
-0.00690209
-0.00698702
-0.0068648
-0.0067512
-0.0066324
-0.00686151
-0.00550525
-0.00368474
-0.00617549
-0.00402238
-0.00353073
-0.00560701
0.00954373
0.0100779
0.00874152
0.00974258
0.00818126
0.00880687
0.0111315
0.010706
0.0100931
0.00773164
0.00761586
-0.00541323
-0.00533243
-0.0055683
-0.00556722
-0.00563852
-0.00550459
-0.00529853
-0.00547159
-0.00518192
-0.00566919
-0.00557195
-0.00536356
-0.00561464
-0.00539482
0.00762573
0.00692267
0.00718176
0.00594932
0.00634749
0.00664562
0.00636838
0.00742514
0.00706416
0.00663217
0.00605468
0.00567631
0.00729761
0.00599832
-0.00515746
-0.00518719
-0.00480555
-0.00473605
-0.00496086
-0.00492218
-0.00508617
-0.00485907
-0.00531547
-0.0048405
-0.00492792
-0.00461152
-0.0049444
-0.00529729
-0.00513104
-0.00490891
-0.00494472
-0.0109967
-0.0106937
-0.0107818
-0.00987032
-0.0113718
-0.00982535
-0.0109822
-0.0105376
-0.00982521
-0.0111367
-0.00998697
-0.0103324
-0.00182909
-0.00176006
-0.00232277
-0.00239237
-0.00113216
0.00030128
-0.000146159
-0.000235675
0.000326876
-0.000152298
-0.00116146
-0.00104209
-0.00025423
0.0020716
0.0020982
0.00200086
0.00246991
0.00236565
0.00246275
0.00245901
0.0026607
0.00251504
0.00227828
0.00225439
0.0022343
0.00267314
0.00234908
0.002504
0.000113913
0.000169975
-9.08186e-05
5.73544e-06
-7.32892e-05
0.000403829
0.000141975
0.000264402
0.000367132
-7.70973e-05
0.000129433
0.00033986
0.000212433
0.000626512
0.000655199
0.00064169
0.000567688
0.000258746
0.000400503
0.000384097
-3.38417e-05
0.000142662
0.000401496
-0.000831642
0.00697224
0.00331221
0.00119609
-0.000873741
-0.00123473
0.00448304
-0.000997427
-0.00133079
0.00228348
-0.00261832
-0.00265448
-0.00247327
-0.00239728
-0.00259975
-0.00270708
-0.00268718
-0.00207522
-0.00249072
-0.00248153
-0.00240376
-0.00200432
-0.0022772
-0.00257149
-0.00218048
-0.00249952
-0.00239049
0.00898658
0.00828027
0.00829047
0.00719115
0.00360358
0.00522154
0.00459997
0.00668278
0.00717633
0.00833055
0.00585253
-0.000553439
-0.00121262
-0.0016445
-0.00162909
-0.0013386
-0.00151992
-0.00105846
-0.00135039
-0.00171
-0.00110811
-0.00133284
-6.21766e-06
2.44152e-05
-2.84797e-05
-2.19211e-05
-4.98273e-05
-6.49009e-05
-2.09022e-05
5.66729e-05
-6.36922e-06
8.36138e-07
-0.000101501
-9.2272e-05
-5.85175e-05
-7.22809e-05
-3.01488e-05
-0.0042099
-0.00130105
-0.00556287
-0.00381209
-0.00376279
-0.00445715
-0.00479584
-0.00469764
-0.00488883
-0.00482915
-0.00465172
-0.00511452
0.0476995
0.0524414
0.0411918
0.0438241
0.0465822
0.0485113
0.048229
0.0510517
0.0436828
0.0479987
0.0463044
0.047253
0.0433856
0.0477619
0.0421768
0.0435795
0.0454979
0.0406085
0.0326185
0.0321173
0.0327932
0.0335385
0.0343206
0.0352742
0.0328205
0.0334992
0.0359012
0.0391495
0.0359261
0.0362297
0.0380246
0.024129
0.0214466
0.0191093
0.0206729
0.0249016
0.0217291
0.020377
0.0218055
0.0214854
0.0196464
0.0265768
0.0266029
0.0201958
0.0216799
0.0191075
0.0249245
0.0270397
0.0271823
0.0233434
0.0233639
0.0239046
0.025172
-0.00741553
-0.00785987
-0.00829259
-0.00799566
-0.00808355
-0.0073536
-0.00765322
-0.00767907
-0.0076311
-0.00744399
-0.00819304
-0.00770704
-0.00792825
-0.00759975
-0.00814364
-0.00767221
-0.0394572
-0.045344
-0.0261821
-0.030437
-0.0222864
-0.0314724
-0.0310477
-0.0293271
-0.0234751
-0.0273412
-0.0420504
-0.0354989
-0.0294294
-0.0371387
-0.0255244
-0.0272073
0.00427888
0.00416099
0.0042154
0.00485213
0.00505739
0.00566366
0.0038792
0.00360674
0.0050918
0.00516119
0.00573595
0.00535335
0.00532851
0.00515434
0.00486088
0.00426743
0.00375573
0.00438708
0.0317573
0.0359015
0.0345675
0.0310331
0.0323919
0.0351805
0.0385767
0.0375289
0.0327964
0.0385497
0.0402871
0.038567
0.0348172
0.0315131
0.0322841
0.0331771
0.0248144
0.024212
0.0246893
0.0244852
0.0237075
0.0253381
0.0258916
0.0253068
0.0247264
0.025614
0.0250841
0.0243046
0.0251029
0.0236522
0.0242842
0.0257172
0.0261573
0.0121858
0.0119495
0.0116827
0.0120702
0.0121163
0.0122662
0.0123638
0.01225
0.012292
0.0121161
0.0118732
0.0121175
0.0125202
0.0123298
0.0123791
0.0117089
0.0117649
0.000821169
-0.000561843
-0.00196268
-0.000983384
-0.00070965
0.000605071
0.000359136
0.000632544
-0.0015156
-0.00147574
-0.00278672
-0.00234839
-0.000363954
-0.00117812
-0.0031622
-0.00161017
-4.26334e-05
-0.00169114
-0.000736817
-0.000906445
-0.000857911
-0.000882537
-0.00042873
-0.000642655
-0.000594955
-0.000692272
-0.000467335
-0.000660683
-0.000693778
-0.000433551
-0.000415028
-0.000308103
-0.00317647
-0.0027232
-0.00458172
-0.00484081
-0.00508503
-0.00526504
-0.00363422
-0.00277839
-0.00280967
-0.00498434
-0.00468928
-0.00408718
-0.00299397
-0.00295786
-0.00308935
-0.00358329
-0.00390609
-0.0040476
0.019642
0.0155579
0.0163875
0.023051
0.019437
0.0136608
0.0164969
0.0168455
0.0133127
0.0216044
0.0167723
0.0139454
-0.0060134
-0.00529772
-0.00516972
-0.00437368
-0.00451635
-0.00621382
-0.00248764
-0.00332018
-0.00612318
-0.00441335
-0.00465651
-0.00381836
-0.00367598
-0.00551993
-0.00444606
-0.00493362
-0.00154928
-0.00192188
-0.00118176
-0.0012213
-0.00193778
-0.00214829
-0.000378293
0.0005689
-0.000365073
-0.000983322
-0.000458656
-0.00219595
-0.00151407
-0.000454309
-0.000176797
-0.001519
0.00672789
0.00619184
0.00561455
0.0080408
0.00867424
0.00684782
0.0074008
0.00529907
0.00644778
0.00678402
0.00792376
0.00755216
0.00808044
0.00853262
0.00816455
0.00602956
0.00610351
0.00707769
0.00583379
-0.000522934
-0.00041077
-0.000506308
-0.000670984
-0.000609135
-0.000475849
-0.00084881
-0.000894169
-0.000535661
-0.000802332
-0.000545383
-0.000954709
-0.000692831
-0.000588457
0.000265041
0.000173366
5.28018e-05
0.000128834
1.70501e-05
6.98339e-05
-2.74305e-05
1.59928e-05
4.15097e-05
-8.42011e-05
-0.000113086
6.44407e-05
-3.81462e-05
-6.84065e-05
4.3861e-05
-9.59518e-05
-1.13195e-05
-2.51126e-05
0.00101497
-0.000136625
0.00170455
0.00243229
0.00239413
-0.000787246
0.00101649
0.0015688
0.00173696
0.0018703
0.000291798
-0.00392249
-0.00423297
-0.00586165
-0.00639966
-0.00861945
-0.00987187
-0.00828581
-0.0122803
-0.00345247
-0.00360631
-0.00724623
-0.0104156
-0.0101976
-0.00959722
-0.0108359
-0.010882
-0.00967157
-0.00572921
-0.0062483
-0.00748132
-0.00512426
-0.00721938
-0.00736981
-0.00633617
-0.00677345
-0.00637997
-0.00743957
-0.00722868
-0.00670144
-0.00633493
-0.00652347
-0.00705967
-0.00668067
-0.00697959
-0.0061736
-0.00664441
-0.00691633
-0.00620559
-0.00798966
-0.00693228
-0.00989143
-0.014872
-0.00825272
-0.00776515
-0.0132454
-0.0157621
-0.00959001
-0.0135575
-0.0119311
0.00145344
0.00155633
0.00177089
0.00259522
0.00315018
0.00349651
0.00465203
0.00424286
0.00339818
0.00241915
0.00441293
0.00281853
0.00482112
-0.000974257
-0.00088762
-0.00089766
-0.000972471
-0.000906241
-0.000748266
-0.000842688
-0.000743249
-0.00104753
-0.00104508
-0.00073701
-0.000753902
-0.000962448
-0.000638165
-0.000939629
-0.000850126
-0.00069768
-0.000843812
-0.000711624
-0.000875253
-0.00093002
-0.000703334
-0.00328542
-0.00328986
-0.00335704
-0.00331597
-0.00310404
-0.00229584
-0.0028366
-0.00263246
-0.00257641
-0.00202845
-0.00217954
-0.00238131
-0.00255092
-0.00245607
-0.00232356
-0.00250319
-0.00228655
-0.00207279
-0.0025157
-0.00218421
-0.00419952
-0.00424493
-0.00485926
-0.00496586
-0.00382379
-0.00392965
-0.00528159
-0.00486424
-0.00441948
-0.00346495
-0.00373688
-0.00363909
-0.00342498
-0.0038971
-0.00397181
-0.00439945
-0.00338209
-0.00348671
-0.00411496
-0.00456563
-0.00347662
-0.00363252
-0.00352006
-0.0050635
-0.00387585
-0.0050686
-0.00359769
-0.00493431
-0.00298945
-0.00268582
-0.00248302
-0.0030535
-0.00488876
-0.00543857
-0.00531534
-0.00375681
-0.00310657
-0.00437934
-0.00483917
-0.00130737
-0.00154455
-0.00239558
-0.00153735
-0.00215361
-0.00386868
-0.00293578
-0.0022425
-0.0020571
-0.00193422
-0.00330595
-0.00328885
-0.00498772
-0.00273099
0.0204288
0.0210229
0.0218988
0.0207955
0.0215781
0.0205523
0.0214983
0.0203838
0.0208525
0.0217768
-0.00712997
-0.00707895
-0.00639299
-0.00637991
-0.00740491
-0.00716797
-0.00649705
-0.00669039
-0.00710433
-0.00619634
-0.00679706
-0.00635201
-0.0062758
-0.00712659
-0.00636028
-0.00676528
-0.00723266
-0.0099578
-0.00962302
-0.0104848
-0.0101226
-0.0106016
-0.0110077
-0.00918618
-0.00903231
-0.00962338
-0.00946201
-0.0105309
-0.0110922
-0.00881273
-0.00977045
-0.00898675
-0.0101346
-0.0102717
-0.011127
-0.00972715
-0.0101496
0.0114441
0.011973
0.0126097
0.012048
0.011541
0.012757
0.00885958
0.0104149
0.0108029
0.0102958
0.00957562
0.0120994
0.0114992
0.0119522
0.0110725
0.0107268
0.00360239
0.00576996
0.0109066
0.0078942
0.0066394
0.0136592
0.00281072
0.0026614
0.00746923
0.0113024
0.00837542
0.00826267
0.00516039
-0.0104917
-0.0113634
-0.00950587
-0.00853057
-0.00840789
-0.00938991
-0.00959431
-0.0101155
-0.00850889
-0.00768719
-0.0079134
-0.00853893
0.0119586
0.0112425
0.0109296
0.0109756
0.0109627
0.00994212
0.00943531
0.00901726
0.00917977
0.00957645
0.00953579
0.00885093
0.0100616
0.00950791
0.0108846
0.0109838
0.00955639
0.010243
0.010001
-0.00748375
-0.007626
-0.00973258
-0.00968253
-0.00958764
-0.00690415
-0.00665141
-0.00861068
-0.00820533
-0.00681872
-0.00657576
-0.00881318
-0.00830312
-0.00887031
-0.00668618
-0.0079093
-0.00692008
-0.00859875
-0.00722729
-0.00210886
-0.00665882
-0.0029502
0.000431419
-0.00367563
-0.00536737
-0.0024695
0.000405176
-0.000363049
-0.00489164
-0.00449085
-0.00267283
-0.00278735
-0.00159351
-0.00511538
-0.00630215
0.0192509
0.0197059
0.0188846
0.0188072
0.0195696
0.0205344
0.020702
0.0197102
0.0195302
0.0202894
0.020551
0.0195965
0.0206994
0.021099
0.0217843
0.0212374
0.00919063
0.0121589
0.0111015
0.0149465
0.00404425
0.00321081
0.0101642
0.0108992
0.0014105
0.00102343
0.00441818
0.00657905
0.0107856
0.00228533
0.0017539
0.00953128
0.00211245
0.00415161
0.0029626
0.00523083
0.0554439
0.0496092
0.0453238
0.0450162
0.053939
0.0552377
0.0488531
0.0535989
0.0478536
0.049814
0.0474302
0.0478368
0.044745
0.0446109
0.0502214
0.0212745
0.019584
0.0256039
0.0254338
0.0234043
0.020569
0.0268532
0.0226384
0.0267576
0.0300655
0.0278222
0.0295854
0.0316178
0.0285213
-0.0116134
-0.0120686
-0.01211
-0.012709
-0.0106875
-0.0107938
-0.00916956
-0.00792914
-0.0103302
-0.0103067
-0.00825781
-0.00785744
-0.0112356
-0.00921383
-0.00855941
-0.00940452
-0.00271134
-0.00249408
-0.00249678
-0.00256528
-0.00247779
-0.00269498
-0.00254724
-0.00268462
-0.0027671
-0.00234631
-0.00237367
-0.00233638
-0.0026506
-0.00284419
-0.00235392
-0.00267077
-0.00261369
-0.00277265
-0.00265146
-0.00937071
-0.00970747
-0.0100468
-0.00995283
-0.0100523
-0.0110761
-0.00958926
-0.0100599
-0.0100703
-0.00905818
-0.00905709
-0.00951874
-0.00907713
-0.00905336
-0.0103613
-0.0107249
-0.00770381
-0.00818276
-0.00818127
-0.00809011
-0.0071133
-0.00739764
-0.00829583
-0.00778814
-0.00734836
0.0280388
0.0272531
0.0272881
0.0277528
0.0278919
0.0274968
0.0272734
0.0273326
0.0280235
0.027792
0.0278761
0.0276119
0.0277553
0.0275366
0.0278505
0.0278983
0.0278712
0.0276639
0.0273226
0.0279737
-0.00361848
-0.0043063
-0.00368387
-0.0040228
-0.00352217
-0.00348369
-0.00351355
-0.00415375
-0.00334475
-0.00342077
-0.00363273
-0.00382786
-0.00214309
-0.00209889
-0.0018659
-0.00173412
-0.00172537
-0.00211212
-0.00210182
-0.0021513
-0.00201906
-0.00177208
-0.00178479
-0.00190704
-0.00201543
-0.00171395
-0.00177127
-0.00190025
-0.00186261
-0.00187863
-0.000987132
-0.000950457
-0.00108653
-0.000910071
-0.000944611
-0.00111977
-0.00113371
-0.00133731
-0.00130415
-0.000919238
-0.0011315
-0.000963451
-0.00127851
-0.00126372
-0.00100478
-0.000878127
-0.00135601
-0.00118428
-0.000916002
-0.000309516
-0.000275097
-0.00034426
-2.69316e-05
-6.91406e-05
8.22577e-05
-4.56413e-05
-0.000256706
-1.929e-05
-2.22614e-05
2.62856e-05
0.000286947
0.000240882
2.92909e-05
-0.000147822
-7.86677e-05
-0.00554659
-0.00513359
-0.00643966
-0.00606427
-0.00428034
-0.00380019
-0.0049548
-0.00592978
-0.00642404
-0.00728377
-0.0071304
-0.00729191
-0.0075018
-0.0074557
-0.00760944
-0.00735108
-0.00761795
-0.00756849
-0.00757481
-0.00768504
-0.00774396
-0.00151961
-0.00134166
-0.00136154
-0.0013949
-0.00142598
-0.0015035
-0.00153207
-0.00150896
-0.00160492
-0.00144257
-0.001725
-0.00168897
-0.00163848
-0.00170563
-0.00164922
-0.0016506
0.0280957
0.0281316
0.0281216
0.0278449
0.027439
0.0273181
0.0270408
0.0269926
0.0272579
0.0277311
-0.0020633
-0.00208857
-0.0019216
-0.00186382
-0.00215398
-0.0021785
-0.00209873
-0.00207287
-0.00262481
-0.00232919
-0.00258589
-0.00239761
-0.00246154
-0.00254195
-0.00270078
-0.00265958
-0.00266933
-0.00230597
-0.00263382
-0.00289355
-0.00264389
-0.00272841
-0.00275047
-0.00268496
-0.002843
-0.00267644
-0.00275665
-0.00292292
-0.00276132
-0.00297619
-0.00288017
-0.0029457
-0.00269532
-0.00291255
-0.00293888
-0.00288574
0.00969558
0.00929665
0.00882149
0.00952997
0.00808367
0.00769971
0.0100045
0.00949541
0.00862666
0.00970273
0.00888729
0.00838888
0.00885922
0.00886611
0.0284071
0.0283199
0.0281938
0.0280387
0.0284623
0.0280725
0.0279011
0.0279271
0.0282112
0.028033
0.028222
0.0283368
0.0279395
0.0279092
0.0277966
0.0278257
0.0281762
0.027969
0.0281432
0.0279365
0.0554861
0.0551517
0.0465866
0.049168
0.0451193
0.0492131
0.0356715
0.0506132
0.0451824
0.0439506
0.05022
0.0419163
0.0522944
0.0555849
0.0502866
0.0573537
0.0409402
0.0494457
0.0461963
-0.00913313
-0.0108257
-0.00560956
-0.0053359
-0.00806095
-0.0108465
-0.0125037
-0.0147219
-0.00529573
-0.00547749
-0.0196003
-0.0163714
-0.00887729
-0.0106186
-0.0134813
-0.00817712
-0.00902528
-0.0177509
-0.0122104
-0.0133726
-0.000169058
-0.000271181
-0.000181872
-0.000224231
-0.000254692
-0.000192442
-0.000419575
-6.55702e-05
-0.000362778
-0.000365609
-0.000240883
-0.000317652
-0.000259596
-0.00014836
-0.000302847
-0.000466634
-0.00040449
-0.00040024
-0.000166245
0.0053068
0.00429226
-0.0134528
-0.0158748
-0.000467192
0.00147568
0.0022646
-0.00119
-0.00960645
-0.00175287
-0.00512785
-0.00206408
-0.00908852
-0.00838638
-0.0117814
-0.0113231
0.0301273
0.0300816
0.0299553
0.0300281
0.0302923
0.0303116
0.0301919
0.0302232
0.0300409
0.0299054
0.0304145
0.0302008
0.0303542
0.0303461
0.0299777
0.0299123
0.0300774
0.030245
0.0303691
0.0299735
0.00285143
0.00277089
0.00321742
0.00351479
0.00115311
0.000751605
0.000473432
-0.000288711
0.00154818
0.00274471
0.0029225
0.000788013
0.000437883
-0.000177911
-0.000634452
-0.000591853
0.00153445
-0.00010892
9.82961e-05
0.00104703
0.030343
0.0302274
0.0303082
0.0303497
0.0303393
0.0303612
0.0302867
0.0304124
0.0304741
0.0304837
0.0305495
0.0302648
0.0304258
0.0304003
0.0305051
0.0304891
0.030376
-0.00256445
-0.00244218
-0.0025615
-0.0027654
-0.00267217
-0.00247606
-0.00234366
-0.00258325
-0.00269169
-0.00269086
-0.00238837
-0.00220732
0.0284212
0.0282628
0.0287799
0.028784
0.02854
0.0285048
0.0281764
0.0284034
0.0286134
0.0287582
0.0287889
0.0284359
0.0282527
0.0283919
0.0281885
0.0284146
0.0281733
0.0284452
0.0284967
0.0281732
0.0284098
0.0224737
0.0220628
0.0221339
0.0225181
0.0225788
0.0218491
0.0222089
0.0236414
0.0238153
0.0236218
0.0229626
0.0226826
0.0223327
0.0222636
0.0223493
0.0229105
0.0228413
0.0228049
0.00821467
0.00861787
0.00848315
0.00782333
0.00834125
0.00902428
0.00853984
0.00824182
0.00846342
0.00944951
0.00898613
0.00931227
0.00912038
0.00837491
0.00800053
0.0481054
0.043012
0.0371872
0.038621
0.0449506
0.0430371
0.0543568
0.0398287
0.0466733
0.0415998
0.0539541
0.0537589
0.0494968
0.0427876
0.00312379
0.00308437
0.0033433
0.00319363
0.00298821
0.00318341
0.00304076
0.0029438
0.00326683
0.00316563
0.00317727
0.00279016
0.0027394
0.00324846
0.00316325
0.00319329
0.0238831
0.0218986
0.0235254
0.0217749
0.0213755
0.021793
0.0220008
0.0220813
0.0230163
0.0232408
0.025701
0.0251863
0.0242268
0.0265982
0.0271686
0.0246037
0.0255864
0.0295997
0.0295532
0.0291634
0.029262
0.0293578
0.0294121
0.0296278
0.0296646
0.029125
0.0292444
0.0295764
0.0295985
0.0295571
0.0294346
0.0293944
0.0295545
0.0293613
-0.0183525
-0.0155307
-0.014799
-0.0201207
-0.015073
-0.0197421
-0.0290344
-0.0136915
-0.0165952
-0.0161588
-0.015407
-0.0188704
-0.0222978
-0.0153643
-0.00344629
-0.00272941
0.000727602
-0.00129249
0.0177339
0.0175167
0.0188047
0.0184581
0.0178576
0.0168919
0.0171389
0.018486
0.0189385
0.0185725
0.0183717
0.0186301
0.0171837
0.0169331
0.0164075
0.0179807
0.0169921
0.0174813
0.0166845
0.0179435
0.0173259
0.0171025
0.000371697
-0.000162838
-5.0198e-06
0.000414658
0.000256111
2.25165e-05
0.000301449
0.000448825
0.000735762
4.98162e-05
0.000734328
0.000595189
0.00104465
0.000925112
0.000614247
0.00046765
-0.00192098
-0.00216348
-0.00169506
-0.00181319
-0.00207313
-0.00186666
-0.00177535
-0.00202142
-0.00218046
-0.00209873
-0.00210401
-0.00172829
-0.00175775
-0.00168159
-0.00181183
-0.00178773
-0.00214024
-0.00218499
-0.0020773
-0.0019209
-0.00175921
-0.00194989
-0.00241515
-0.00252056
-0.00254865
-0.00256666
-0.00264555
-0.00274407
-0.00252177
-0.00275569
-0.00238649
-0.00255838
-0.00234253
-0.00266345
-0.00229388
-0.0023652
-0.00229807
-0.00266752
-0.0023667
-0.00234241
-0.00262645
0.0249911
0.0213063
0.0195674
0.0166672
0.0214158
0.0190547
0.0176917
0.0228887
0.0223088
0.0186555
0.0205217
0.0236528
0.0219242
0.0269041
0.0239518
0.023487
0.0198896
0.0169374
0.0194005
0.0209049
0.0177084
0.0203489
0.00843636
0.00733507
0.00686626
0.00718981
0.00757034
0.00874695
0.00866623
0.00808773
0.00760704
0.00695286
0.0072171
0.00721522
0.00725328
0.0078083
0.00766733
0.0083557
0.00765492
0.00707578
0.00748102
-0.00506815
-0.0049367
-0.00491909
-0.00510362
-0.00503317
-0.00513949
-0.00530103
-0.00535884
-0.00504199
-0.0053392
-0.0052386
-0.00512012
-0.005209
-0.00508914
-0.00521446
-0.00517453
-0.00519693
0.00239859
0.00233941
0.00211037
0.00203656
0.00222877
0.00201112
0.00191811
0.00196768
0.00228123
0.00179534
0.00220579
0.00194606
0.00201648
0.00203029
-0.00020169
-0.000307187
-0.000430761
-0.000405642
-0.00128999
-0.00138655
-0.000193907
-0.00097815
-0.00162384
-0.0020897
-0.00205966
-0.000788915
-0.00083455
-0.00160553
-0.00179032
-0.000547029
-0.000780864
1.09159e-05
-3.60184e-06
-1.92991e-05
4.23985e-06
-9.35081e-06
-1.26219e-05
-1.54615e-05
-3.65616e-07
-1.05026e-06
5.60107e-06
-2.20017e-05
-2.33704e-05
-4.8707e-05
-5.23802e-05
-1.18291e-05
-2.21479e-05
-5.34196e-05
-3.7308e-05
-3.49608e-05
-6.54433e-05
-2.97527e-05
-1.97376e-05
6.52529e-05
7.79054e-05
3.08249e-05
6.20432e-06
9.79087e-05
1.77512e-05
9.71902e-06
0.000153831
0.00013596
-1.09799e-05
4.31084e-05
7.98594e-05
8.24625e-05
0.000109769
7.50392e-05
9.17098e-05
7.29379e-05
7.91638e-06
-0.011171
-0.0155972
-0.0192813
-0.0230924
-0.0231575
-0.0252502
-0.0149385
-0.0181751
-0.0202895
-0.00788468
-0.0133349
-0.0153373
-0.0228649
-0.0206778
-0.0193816
-0.018937
-0.0154348
0.00302784
0.00291686
0.00261441
0.00364231
0.00303843
0.00239009
0.00216451
0.00370185
0.00336886
0.00270814
-0.0051278
-0.00491664
-0.0050568
-0.00530912
-0.00400515
-0.00396468
-0.00528985
-0.00536653
-0.00498404
-0.00506182
-0.00430721
-0.00400629
-0.00429572
-0.00452744
-0.00466292
-0.0050372
-0.00449678
-0.00470231
-0.00219482
-0.00236922
-0.00239763
-0.0024613
-0.00214363
-0.0021584
-0.00252416
-0.00215086
-0.00164611
-0.00183148
-0.00229393
-0.002024
-0.00195698
4.69102e-05
5.82769e-05
3.21373e-05
2.8905e-05
5.46584e-05
0.000171382
0.00015874
7.93733e-05
0.000180975
0.000169794
0.000209899
0.000216114
7.36663e-05
0.000195914
-0.00383151
-0.00376487
-0.00422322
-0.00421001
-0.00363005
-0.0044406
-0.0047299
-0.00374284
-0.00365831
-0.00430864
-0.00399169
-0.00430415
-0.00440885
-0.00412851
-0.00452787
-0.0313725
-0.0288983
-0.0268318
-0.0294706
-0.026489
-0.0230839
-0.0369322
-0.0385965
-0.0374296
-0.0355544
-0.0376821
-0.0409043
-0.0287962
-0.0295713
-0.0322199
-0.0310131
-0.0309292
-0.038647
0.0292154
0.0292119
0.0294697
0.0288199
0.028934
0.0289018
0.0290087
0.0288287
0.0291509
0.0291259
-0.00495865
-0.00509514
-0.00516248
-0.00534906
-0.00492461
-0.00517722
-0.0048398
-0.00489776
-0.00483278
-0.00487862
-0.00490281
-0.00521767
-0.0054131
-0.00512458
-0.00519132
-0.0050023
-0.00507488
-0.00517606
-0.00519972
-0.00533987
-0.00546467
-0.00519322
0.00208487
0.0020586
0.00215149
0.00211245
0.00184739
0.0022459
0.00190714
0.00156333
0.00181835
0.00213865
0.00152628
0.00180959
0.00174681
0.00173399
0.00161569
0.00167885
0.00171058
0.00169127
0.0309722
0.031913
0.0331575
0.0318816
0.0304923
0.0329086
0.0311439
0.0320615
0.0284832
0.0302854
0.0318278
0.0290789
0.0294076
0.0281897
0.0269614
0.0299674
0.0278427
0.0267208
0.0277714
0.0419376
0.0402706
0.0376664
0.0356479
0.0423956
0.0451235
0.0449041
0.0459188
0.0539883
0.051468
0.0462454
0.0508213
0.039757
0.0412529
0.0541591
0.056724
0.0485312
0.053519
0.03021
0.0303201
0.0303756
0.0301929
0.0302947
0.0301902
0.0303618
0.0303104
0.030162
0.0302891
0.0301057
0.030138
0.0303579
0.0302939
0.0302983
0.0303586
0.030222
0.0260652
0.0256482
0.0279236
0.0290302
0.03087
0.0289354
0.029072
0.0253944
0.0247845
0.0292529
0.0272643
0.028748
0.0257362
0.0277485
0.0256257
0.0253524
0.0265195
0.0270436
0.0260336
0.0266455
0.0276831
0.0275036
0.0268664
0.0261737
0.0277258
0.028072
0.0275986
0.0229709
0.0225415
0.0247772
0.0261314
0.0143967
0.0134696
0.0234237
0.0232893
0.0141977
0.016498
0.0188011
0.0189284
0.0204912
0.0180038
0.0157689
0.0135953
0.0281782
0.0273771
0.027709
0.0282289
0.0274514
0.0287509
0.0283597
0.0275797
0.0276057
0.0303417
0.0299242
0.0296007
0.0290692
0.0280027
0.0291147
0.0285671
0.0295689
0.0289745
0.028355
0.0298513
0.013947
0.0175327
0.0113498
0.0101529
0.0115384
0.0109964
0.0196674
0.0104444
0.0136686
0.0125047
0.0101347
0.0144205
0.0131139
0.0128316
0.0157438
0.0182847
0.0173061
0.0186029
0.0147181
0.0143744
0.0194356
0.017109
0.0209203
0.0173497
0.0204627
0.0187357
0.0193094
0.0195747
0.0168192
0.0183798
0.0175318
0.0191378
0.0174532
0.0294165
0.0294782
0.0292757
0.0291906
0.029867
0.0298403
0.0293587
0.029239
0.0300275
0.0300288
0.0294656
0.0297295
0.0299765
0.0299445
0.0298496
-0.00668851
-0.00644861
-0.00715707
-0.00791393
-0.00847208
-0.00620586
-0.00582296
-0.00772177
-0.00881292
0.0317892
0.0309442
0.0299396
0.0299117
0.0306026
0.030011
0.0321828
0.0296807
0.0333684
0.0319171
0.0297739
0.0315424
0.0321737
0.0325905
0.0330371
0.0288962
0.0291632
0.0309119
0.0330879
0.031782
0.0293813
0.0302243
0.00646332
0.00716226
0.0065867
0.00487686
0.0059718
0.00681339
0.00382715
0.00539828
0.00543853
0.00402089
0.00447983
0.00282075
0.00337263
0.00313047
0.00264691
0.00356452
0.00444973
0.00566505
0.0020414
0.00481394
0.0284496
0.0268501
0.0314484
0.0270794
0.0288869
0.0354638
0.0327909
0.028986
0.0326716
0.0282034
0.0305933
0.0363319
0.0341003
0.0348671
0.0383431
0.0316951
0.0311051
0.0293814
0.0338861
0.0278676
0.03108
0.0288499
0.0325821
0.0370134
0.037889
0.0359522
0.00081348
0.000569314
0.00155149
0.00110129
0.000909626
0.00110808
0.000282689
0.000473892
0.00118433
0.00108435
0.00129848
0.00104822
0.0015174
0.000524014
0.000649943
0.00151332
0.00111899
0.000988733
0.000304028
0.00080534
0.000672792
0.00103985
0.00136268
0.00157087
0.00122285
0.00138779
0.00335956
0.00436561
0.00472908
0.00555019
0.00332251
0.00314757
0.00334101
0.00850542
0.0066379
0.00896325
0.00733716
0.00463058
0.00660884
0.00391668
0.00373309
0.00382126
0.00522911
0.00452145
0.0120871
0.0116416
0.00855173
0.0102429
0.00907246
0.00726983
0.0039747
0.00850249
0.00893097
0.00638411
0.00202066
0.00546413
0.00697786
0.0258126
0.0265557
0.0268713
0.0255966
0.0271675
0.0269531
0.0273233
0.0265489
0.0266519
0.0257098
0.025884
0.0276373
0.0270465
-0.01001
-0.0104493
-0.0118873
-0.0109134
-0.0105221
-0.0130289
-0.0148074
-0.0132248
-0.0159964
-0.0119979
-0.0118985
-0.011504
-0.0135672
-0.00830491
-0.00598261
-0.00556247
-0.00616199
-0.00624817
-0.00756366
-0.00754849
-0.00742051
-0.00532808
-0.00551338
-0.00632644
-0.00525241
-0.0047046
-0.00443325
-0.00490077
-0.00217011
-0.00181617
-0.00140882
-0.00132271
-0.000516864
-0.0016115
-0.000956807
-0.00128516
-0.000534667
-0.000771448
-0.000339327
-0.000777667
-0.000476553
-0.000950977
-9.65215e-05
-0.000211426
-0.00601893
-0.0057647
-0.00594057
-0.0057797
-0.00577413
-0.00559313
-0.00580886
-0.00625394
-0.00585191
-0.0055205
-0.00591247
-0.00613005
-0.00595652
-0.00635505
0.00170125
0.000955029
-0.000717662
0.0016261
-0.000742705
-0.000631264
-0.000607736
0.00114812
0.000942068
0.000277674
0.000864509
0.0236708
0.025139
0.0242587
0.0252558
0.0245425
0.025397
0.024556
0.0238806
0.0249451
0.024096
0.0254532
0.0233918
0.0248293
0.0332563
0.0361769
0.0384878
0.0469067
0.0446519
0.0332872
0.0501168
0.0494211
0.0367773
0.0422403
0.0349153
0.0369804
0.0452789
0.0490596
0.051846
0.0401625
0.0420372
0.0390396
0.0484887
0.0464113
0.0447336
0.0417162
0.0337037
0.0337913
0.0335283
0.0322663
0.0320945
0.0309552
0.0313641
0.0316071
0.0310643
0.0300651
0.0301267
0.0208873
0.0202677
0.02004
0.0196646
0.0219306
0.0214229
0.0199617
0.0212619
0.0203508
0.0195238
0.0188704
0.0190891
0.0206669
0.0219565
0.0221718
0.0195383
0.0190665
0.0211587
0.0186093
0.031669
0.0319441
0.0318337
0.0318453
0.0326044
0.0323971
0.0321772
0.0320159
0.0320125
0.0324023
0.0331487
0.0328659
0.0332792
-0.00863524
-0.00435517
-0.00157116
-0.00513294
-0.00413958
0.00142691
0.00101566
0.00051311
0.00200101
-0.00196468
1.7522e-05
-0.00904073
-0.0122952
-0.00215002
0.000179408
-0.00578061
-0.00352457
-0.0120681
-0.00687642
-0.0128706
-0.00588123
-0.000831718
-0.00027017
-0.00110494
-0.000625717
-0.00039611
-0.00076662
1.73225e-05
-0.000348242
-0.000470745
-0.000844274
-0.000492721
-0.000179047
-0.000864478
-0.00106041
-0.000805398
-0.000368449
-1.84156e-05
-0.000947494
0.00237028
0.00308878
0.00203883
0.0029082
0.00239785
0.00338316
0.00251963
0.00206616
0.00417307
0.00248483
0.00373115
0.00389529
0.00495372
0.00553616
0.00602974
0.00558636
0.00266198
0.00371855
0.00588154
0.00302032
0.00515778
0.00520007
0.00474053
0.00353724
0.00515688
0.00579872
0.00586197
-0.000600316
-0.000626097
-0.000819081
-0.0010488
-0.00103418
0.000478896
-0.0021851
0.00211657
-0.000123774
-0.00192076
3.10907e-05
-0.00145349
-0.00506631
-0.00718901
-0.00851509
-0.0105957
-0.00558346
-0.00692113
-0.00836036
-0.00155634
0.00364001
0.00371202
0.00301866
0.00273801
0.00284643
0.0025051
0.00217765
0.00277718
0.00246698
0.00175801
0.0020472
0.00226552
0.00239304
0.0019564
0.00189148
0.00299547
0.00213499
0.00203774
0.0148365
0.0124959
0.00689269
0.0149255
-0.00142055
-0.0122433
0.0149546
0.00456696
0.0144273
0.00828491
0.00827647
-0.0234779
-0.0214337
-0.0402775
0.000736281
-0.000582886
-0.00189863
-0.0158802
-0.00609427
0.00220829
-0.0147325
-0.0138751
-0.0142292
-0.0120105
-0.0125278
-0.0115147
-0.0112652
-0.0109746
-0.0128942
-0.0123724
-0.0105584
-0.0110644
-0.0118297
-0.0105767
-0.00677746
-0.00542953
-0.0031971
-0.00656396
-0.00323601
-0.00343259
-0.00487626
-0.00736048
-0.00515809
-0.00300774
-0.00592042
-0.00471749
-0.00128981
-0.00149308
-0.0018056
-0.00104717
-0.00237482
-0.00206417
0.0168756
0.0186476
0.0216745
0.0199122
0.0185703
0.0216957
0.00866468
0.0067761
0.0122014
0.009311
0.0191667
0.0235352
0.016417
0.0192315
0.0135111
0.0103554
0.0199034
0.0148616
0.0172545
0.0142159
0.0152499
0.0157815
-0.000254907
-0.00168691
-0.00151637
-0.000554353
0.00109994
0.00166011
0.000554524
0.00251242
0.0026237
9.4011e-05
-0.00161745
0.00156481
0.00243268
0.00305909
0.00356158
7.49878e-05
0.00216259
0.00170009
0.000727171
0.00213342
0.0141586
0.0151179
0.0120146
0.011765
0.0150316
0.0129254
0.0124801
0.0133772
0.0135803
0.0131966
0.0122543
0.0123943
0.0127808
0.011861
0.0141297
-0.00420499
0.00293987
-7.83458e-05
0.00197297
-0.00201571
-0.000479287