/*--------------------------------*- C++ -*----------------------------------*\
  =========                 |
  \\      /  F ield         | OpenFOAM: The Open Source CFD Toolbox
   \\    /   O peration     | Website:  https://openfoam.org
    \\  /    A nd           | Version:  10
     \\/     M anipulation  |
\*---------------------------------------------------------------------------*/
FoamFile
{
    format      ascii;
    class       volScalarField;
    location    "1";
    object      k;
}
// * * * * * * * * * * * * * * * * * * * * * * * * * * * * * * * * * * * * * //

dimensions      [0 2 -2 0 0 0 0];

internalField   nonuniform List<scalar> 
75457
(
0.143607
0.0884133
0.0808552
0.0651514
0.258127
0.259649
0.156002
0.204614
0.0606486
0.0543255
0.0473525
0.253557
0.214789
0.0695319
0.00196175
0.00196244
0.00196217
0.00196243
0.00196223
0.00196141
0.00196204
0.00196122
0.00196262
0.00196279
0.00196282
0.00196392
0.00196248
0.00196077
0.00196092
0.00196013
0.00195856
0.00195946
0.00195937
0.00195842
0.00195817
0.00195951
0.00195904
0.00196141
0.00195966
0.00195888
0.00196151
0.00195887
0.00195883
0.0020421
0.0020833
0.00197535
0.00196962
0.00199933
0.00540844
0.00207287
0.00409663
0.00651522
0.0282789
0.00454623
0.00233547
0.00263242
0.0156787
0.0164383
0.00929976
0.0379173
0.0173811
0.00841617
0.0263632
0.018219
0.00144441
0.0168575
0.000278271
0.0195442
0.0229033
0.034163
0.0241808
0.0516552
0.0155858
0.00222026
0.0185133
0.0046604
0.00511479
0.109263
0.115399
0.0536789
0.141456
0.123548
0.0628399
0.0402507
0.0880426
0.0595087
0.0651165
0.0804873
0.0849549
0.112679
0.0620336
0.0574355
0.150692
0.0825092
0.011408
0.00322783
0.00275521
0.00419821
0.0909014
0.00463903
0.00747055
0.0161324
0.114339
0.0275716
0.0402265
0.0560934
0.187052
0.0405191
1.07032
0.312832
0.3759
0.781995
0.831939
0.105648
0.00733955
0.136593
0.391879
0.0838019
0.0212364
0.241144
0.00590661
0.00112563
0.00164839
0.00865546
0.0230854
0.00424168
0.0965664
0.00358572
0.162781
0.00122804
0.00167575
0.0206303
0.00465998
0.0173569
0.0662879
0.585656
0.00711507
0.122444
0.127491
1.12987
0.00226359
0.00365733
0.00509663
0.00216311
0.0017938
0.00354413
0.0105307
0.0124818
0.821387
0.0212889
1.87077
0.0362156
0.00975886
0.0397221
0.282887
0.600949
0.0630059
1.31708
0.0126463
0.0191919
1.2429
0.0135859
0.0149592
0.00206316
0.00196931
0.00201859
0.00202153
0.00201779
0.00207261
0.0020319
0.00201298
0.00207365
0.00201943
0.00202152
0.00205128
0.00204256
0.0290799
0.0550385
0.0964228
0.0582664
0.0621817
0.135283
0.303508
0.617285
1.4337
0.0188563
0.0310225
0.40008
0.556147
1.48724
0.00688656
0.0166148
0.0322322
0.260451
0.00242565
0.770796
0.00267025
0.00478969
0.00283475
0.0036914
0.00212601
0.013179
0.0204629
0.0167985
0.00819916
0.0132862
0.0335499
0.0786405
0.0750126
0.0588962
0.0466113
0.0527814
0.0384674
0.0466787
0.032258
0.0229239
0.122771
0.0441865
0.128535
0.151405
0.0973018
0.037423
0.0309517
0.0265856
0.0267869
0.0288918
0.151583
0.0227296
0.0285499
0.00750492
0.00409492
0.00380991
0.0825205
0.0137976
0.00130845
0.00836884
0.0348724
0.000872181
0.00294881
0.00324476
0.00522296
0.014693
0.0457932
0.0134407
0.0613561
0.030715
0.000148781
0.00720879
0.0376887
0.094796
0.0135524
0.0357415
0.022107
0.047
0.0294451
0.0213167
0.0118175
0.00104923
0.00441057
0.00184542
0.00349889
0.00411943
0.00999774
0.00641227
0.0218197
0.151902
0.178523
0.454326
0.120009
0.0870805
0.191478
0.108266
0.00745158
0.0074671
0.0365614
0.00823797
0.0436575
0.0464797
0.0689802
0.0306042
0.0320418
0.0233191
0.0780483
0.052066
0.0198724
0.0154077
0.0411916
0.00670636
0.00155528
0.00761145
0.0061373
0.0100775
0.0172003
0.0206841
0.0706388
0.108491
0.0539964
0.0464326
0.0396139
0.0607109
0.0429446
0.0396992
0.0700882
0.0130172
0.0120889
0.013014
0.0233516
0.0174782
0.0110707
0.0211843
0.0106667
0.00794508
0.0139201
0.00670787
0.0795023
0.147929
0.0789725
0.122751
0.220327
0.560252
0.190444
0.475288
0.297012
0.43638
0.79531
0.00740372
0.00581318
0.00677539
0.0226154
0.0170254
0.0045689
0.0107165
0.0286766
0.035646
0.00888712
0.00839628
0.043529
0.0368861
0.316098
0.0259759
0.00360075
0.0561538
0.00966231
0.126686
0.269981
0.0502645
0.0531067
0.022627
0.0784022
0.0295335
0.0244359
0.0831307
0.061014
0.0799279
0.0617795
0.0184261
0.0504368
0.804848
0.0215377
0.017843
0.0602998
0.078763
0.078597
0.0123998
0.00328458
0.00409527
0.00491932
0.0063418
0.00928339
0.00715213
0.0222116
0.0056403
0.0107018
0.0202053
0.0697614
0.0327482
0.0168857
0.0198059
0.0151656
0.0149072
0.124084
0.0749471
0.422901
0.477568
0.0581183
0.00224575
0.00677795
0.00439355
0.00332836
0.00263756
0.00602641
0.00231786
0.00238951
0.00206081
0.0021158
0.00243759
0.00244778
0.00225841
0.00244518
0.00249288
0.00265458
0.00223307
0.00221807
0.00231414
0.00231497
0.00211978
0.00234476
0.0022393
0.00225217
0.00205265
0.00205745
0.00201619
0.00202658
0.0019984
0.00205838
0.00202169
0.00203732
0.00205835
0.00207611
0.00204208
0.00201668
0.00205147
0.002192
0.00219447
0.00203013
0.00203769
0.0021099
0.00206641
0.00202955
0.00202954
0.00217035
0.00216932
0.00209967
0.00212489
0.0021068
0.00208389
0.00207657
0.00202781
0.00209597
0.0021895
0.00208432
0.00211663
0.00213681
0.00205445
0.00233231
0.00198479
0.00199441
0.00198463
0.00198939
0.00198356
0.00194933
0.00193302
0.00198196
0.00212439
0.00195675
0.00196863
0.00195599
0.00196915
0.00194463
0.00239076
0.07416
0.144362
0.100348
0.126345
0.0228767
0.0249355
0.0605027
0.0737031
0.0136484
0.0173178
0.274894
0.0698987
0.0721271
0.102845
0.0159799
0.00608688
0.00195724
0.00195759
0.00209753
0.00206925
0.00176167
0.0017867
0.00182855
0.00187734
0.00193668
0.00191438
0.00166528
0.00171621
0.00204719
0.00201096
0.00404742
0.0015055
0.00171778
0.00175168
0.00201681
0.00211627
0.00215619
0.00207406
0.00205754
0.00222231
0.00225643
0.00200817
0.00204629
0.00222222
0.00221645
0.00237376
0.00221832
0.00205987
0.00203173
0.00200142
0.00196437
0.00196687
0.00196394
0.00197005
0.00197192
0.001964
0.00196527
0.00197083
0.00196956
0.00196808
0.00196833
0.00196936
0.00196971
0.00196972
0.00196719
0.00196605
0.00196808
0.00220882
0.00219531
0.00200422
0.00202241
0.00201364
0.00200539
0.00209366
0.00220492
0.0020269
0.0020707
0.00219804
0.00199632
0.00202045
0.00204011
0.00210358
0.00202611
0.00208611
0.00131249
0.00231585
0.00225045
3.23706e-05
0.00206477
0.0012694
0.00207914
0.001928
0.0021272
0.00213793
0.00216877
0.001643
0.00210779
0.00210134
0.00188727
0.00212729
0.00208643
0.00202057
0.00197704
0.00197233
0.00198992
0.00197341
0.00197093
0.00195434
0.00197235
0.00198283
0.00197602
0.00191956
0.00197114
0.00195602
0.00193418
0.00197185
0.00204034
0.00202436
0.00206032
0.00202363
0.002032
0.00205823
0.00206395
0.0020407
0.00202759
0.00206443
0.00206641
0.00206973
0.00204163
0.00201442
0.00201344
0.00207216
0.00203724
0.00206901
0.00220634
0.00222586
0.00223323
0.00237701
0.00249208
0.00224319
0.00215699
0.00235501
0.00230996
0.00230489
0.00206184
0.00247733
0.00200599
0.00200208
0.0019953
0.00200359
0.00201108
0.00199582
0.00201441
0.00201878
0.00199962
0.00197626
0.00197602
0.00196944
0.00197167
0.00197454
0.00197605
0.00197575
0.00200541
0.00195146
0.00199249
0.00196522
0.00112479
0.000697277
0.000996392
0.00166655
0.00138143
0.00203295
0.00200719
0.00201189
0.00106795
0.00202434
0.00199405
0.00187092
0.00195773
0.00197572
0.00188456
0.00209156
0.00196696
0.00180375
0.00136771
0.00192105
0.00194516
0.00206849
0.0019271
0.00193356
0.00194815
0.00193701
0.00219023
0.00183325
0.00146368
0.001427
0.00177997
0.00196455
0.00194883
0.00195371
0.00196156
0.00195991
0.00196153
0.00196268
0.00196093
0.00196094
0.00195686
0.00196183
0.00196217
0.0019598
0.00196123
0.00195867
0.00195833
0.00195808
0.00195878
0.00195806
0.00195905
0.0019581
0.0019582
0.00195832
0.00195811
0.00195777
0.00195939
0.00195808
0.00195787
0.00195813
0.00195779
0.0019577
0.00195803
0.00203294
0.00215314
0.00219227
0.00196572
0.0019812
0.00209849
0.00199365
0.00195446
0.00198227
0.00219258
0.00207978
0.00261924
0.00261812
0.00296677
0.00273521
0.00221504
0.00081146
0.00681091
0.0120555
0.00223045
0.00228049
0.00289665
0.0089534
0.0038289
0.00171588
0.00819952
0.0160381
0.00851655
0.00242777
0.00285313
0.00320376
0.00315645
0.00196954
0.00200965
0.00205362
0.00201421
0.00193141
0.00191715
0.00200125
0.00144889
0.000907505
0.0026701
0.00290103
0.0035971
0.00143308
0.00308094
0.00456151
0.00242747
0.00442121
0.00610789
0.0131258
0.00477709
0.00977506
0.00245275
0.00223473
0.113802
0.0364164
0.00341623
0.0295754
0.0165177
0.00294744
0.00251199
0.0026002
0.00260792
0.00504288
0.00325156
0.00419513
0.00607017
0.0045915
0.00313241
0.00521347
0.00376654
0.00536513
0.00200134
0.00199406
0.00194166
0.001936
0.0019621
0.00195538
0.00196899
0.00196419
0.00215101
0.00197693
0.00196746
0.00198109
0.00190393
0.00195946
0.00199507
0.00195659
0.00197567
0.00197198
0.00196812
0.00197141
0.00207105
0.00196512
0.00196557
0.00196347
0.00196811
0.00196536
0.00196349
0.00196726
0.00196765
0.00196308
0.00196494
0.00196531
0.00196456
0.00196512
0.00196749
0.0019654
0.00196458
0.00197098
0.00196599
0.00196393
0.00196249
0.00196327
0.00137227
0.00234121
0.00191444
0.0019864
0.0015803
0.00205473
0.00195671
0.0019259
0.00202827
0.002015
0.00200098
0.00167526
0.00172279
0.00205385
0.00200413
0.00199509
0.00188155
0.00197943
0.00193697
0.00197056
0.00194974
0.00194963
0.00504365
0.0138953
0.00202284
0.00203851
0.00189363
0.00179729
0.00198524
0.00202563
0.00221889
0.00393461
0.00704355
0.00615559
0.0020441
0.00191322
0.00196955
0.00238029
0.00133982
0.00199771
0.00200347
0.00197292
0.00198725
0.00197214
0.00197533
0.00196946
0.00199084
0.00198074
0.00198779
0.00199027
0.00198111
0.0020145
0.00203196
0.00196574
0.00196648
0.00196374
0.0019656
0.00196441
0.00196367
0.00196265
0.00196503
0.00196351
0.00196221
0.00195699
0.00201053
0.0013678
0.0020501
0.00196896
0.00195397
0.00187358
0.00201814
0.0019622
0.00154148
0.00209108
0.00206209
0.00163155
0.00201908
0.00174635
0.00213329
0.00198928
0.00288004
0.00352383
0.00373417
0.0042181
0.00321225
0.00286355
0.00281957
0.00244372
0.00237683
0.00256559
0.00426541
0.0033444
0.00259047
0.00257769
0.00334015
0.00255996
0.00309329
0.00296025
0.00237962
0.00249227
0.00208793
0.00216112
0.00210873
0.00208928
0.00221437
0.00235666
0.00251544
0.00205022
0.00208986
0.00201235
0.00262848
0.00258714
0.00206233
0.00216147
0.00226955
0.00279543
0.0300433
0.0245361
0.0179878
0.0194367
0.00735209
0.00690523
0.00560656
0.0123178
0.0125142
0.00889028
0.00354832
0.00685108
0.0122458
0.00204948
0.00208479
0.00206407
0.00198183
0.0019905
0.00201097
0.0020657
0.00204413
0.00202895
0.00199062
0.00198498
0.00200906
0.00210238
0.00243913
0.00154568
0.00197179
0.0023177
0.00198464
0.00186201
0.00187685
0.00187314
0.001837
0.00197242
0.00197532
0.00196143
0.0019611
0.00195704
0.0020352
0.00199418
0.00197028
0.00202242
0.00225491
0.00228328
0.00283468
0.00286405
0.0028591
0.00196264
0.00203284
0.00255832
0.00237086
0.0019805
0.00198115
0.00231193
0.00197058
0.00214412
0.00198822
0.00196742
0.00197396
0.0021138
0.00199245
0.0259116
0.033246
0.00800837
0.0108861
0.0189279
0.0184186
0.00618781
0.0036759
0.00455049
0.00263812
0.00225356
0.0021822
0.0040533
0.00233511
0.00231409
0.00150958
0.00203165
0.00375892
0.0030477
0.00205591
0.00199834
0.00209083
0.00142239
0.00193525
0.00196643
0.00196018
0.00276465
0.00244601
0.00193625
0.00133794
0.00224433
0.00201496
0.0575235
0.0279114
0.04601
0.029692
0.0364659
0.0168706
0.00194737
0.00201705
0.0029924
0.00476666
0.00317198
0.00278177
0.00880791
0.0198115
0.0394815
0.0141754
0.0247874
0.0261082
0.00273825
0.0127043
0.00212055
0.00214624
0.00211215
0.0021023
0.00221964
0.002217
0.00207516
0.0022157
0.00229864
0.00198278
0.00222643
0.00209207
0.00211494
0.00212381
0.0021594
0.00259256
0.00276563
0.00271352
0.00298666
0.00361815
0.00331997
0.00515773
0.00230513
0.00434656
0.00437066
0.004411
0.00461849
0.00478362
0.00619029
0.00240136
0.00279119
0.00232638
0.002342
0.00232661
0.00248866
0.00208871
0.00203815
0.00252854
0.00215611
0.00216914
0.00202252
0.00216037
0.00201238
0.0020303
0.00202295
0.00194517
0.00195961
0.00193336
0.00192654
0.00227104
0.00236468
0.00187265
0.00195179
0.00186034
0.00188171
0.00218886
0.00221394
0.00300406
0.00224255
0.00233232
0.00240363
0.00246586
0.00339149
0.00332307
0.00207969
0.00261523
0.00211634
0.00219028
0.00217722
0.00344916
0.00249891
0.00309828
0.00368214
0.00292219
0.00204018
0.00204186
0.002148
0.00213489
0.00327041
0.0027726
0.00199362
0.00199473
0.00199978
0.00198158
0.0016725
0.0017733
0.00200754
0.00190449
0.00190081
0.00462619
0.00223502
0.00209144
0.0410167
0.0030313
0.00202254
0.00325843
0.00369938
0.00214035
0.00206774
0.00236048
0.00230059
0.00154997
0.00535294
0.00196979
0.00229686
0.00216063
0.00208171
0.00413041
0.00236985
0.00199535
0.00195902
0.00193456
0.00197147
0.00198745
0.00237473
0.00108081
0.00198539
0.00200255
0.00185867
0.00184328
0.00174077
0.0105542
0.0388097
0.138885
0.0131322
0.0744053
0.00234204
0.00712576
0.0604416
0.0612971
0.000433718
0.0188196
0.0309892
0.0711732
0.00510399
0.0156197
0.00214908
0.00349811
0.00280959
0.0032099
0.0700504
0.120671
0.0370571
0.00086672
0.00270614
0.00219267
0.433053
0.417878
0.278889
0.47077
0.00214559
0.00323285
0.0020396
0.00238047
0.00184054
0.0344244
0.0144702
0.0167418
0.00197417
0.00201698
0.00197112
0.0019737
0.00196242
0.0019655
0.00196643
0.00197277
0.00196698
0.00196624
0.00197629
0.00197117
0.0019705
0.00197174
0.00196663
0.00197219
0.00434822
0.000460085
0.0090004
0.00649485
0.0797961
0.0549304
0.00556124
0.0410789
0.0835435
0.0120992
0.00870053
0.0150355
0.00299197
0.0239858
0.0295471
0.0139361
0.017599
0.0037395
0.00139733
0.01588
0.000833648
0.0197739
0.0420748
0.00392453
0.0133462
0.0018534
0.0246442
0.0605421
0.020816
0.00169425
0.00342223
0.00389899
0.0694433
0.0041514
0.00710996
0.00972964
0.0275946
0.0163802
0.024415
0.0263598
0.0580783
0.00215509
0.057371
0.917335
0.0523475
0.127499
0.0161593
0.0553862
0.0642943
0.00364928
0.00257638
0.0217083
0.0280596
0.00281003
0.00098308
0.0352018
0.00100053
0.0140057
0.0353378
0.0145119
0.00138594
0.00161702
0.031306
0.0123868
0.00154606
0.00222787
0.0025749
0.00216302
0.00181925
0.00189357
0.00199522
0.00166179
0.00187188
0.00192135
0.00192752
0.00192646
0.00224303
0.00231229
0.00182037
0.00200829
0.00173052
0.00157862
0.00180542
0.00220402
0.00189155
0.00209453
0.00199876
0.00183616
0.00193485
0.00254899
0.000867375
0.00154062
0.00227446
0.0017325
0.00824979
0.0204969
0.0046097
0.0098895
0.00843931
0.007036
0.00687607
0.0107432
0.00674521
0.00910158
0.0123365
0.021604
0.0146941
0.00515985
0.0139233
0.00561149
0.00550018
0.0112287
0.0136133
0.0297031
0.0156929
0.00649846
0.0060747
0.00560801
0.0065031
0.0075656
0.00318904
0.00226274
0.00658809
0.0234094
0.0311653
0.00346361
0.00430283
0.00753752
0.00720359
0.00406681
0.00837966
0.00600836
0.00597825
0.00790968
0.00364608
0.00515523
0.00371308
0.00254771
0.00306698
0.00234838
0.00369503
0.00407143
0.00952376
0.0116192
0.00260259
0.00272763
0.0129758
0.0106541
0.00281168
0.00312482
0.00244941
0.00453395
0.00342467
0.0120732
0.00352353
0.00255265
0.00202577
0.00193386
0.00174801
0.00175885
0.00208683
0.0376753
0.0610108
0.00894274
0.00783085
0.00405355
0.00605497
0.000960546
0.00347974
0.00318831
0.0142179
0.00173658
0.00123957
0.00137177
0.00307866
0.0114631
0.00627802
0.0048965
0.00726442
0.00398832
0.00409879
0.00257409
0.00350718
0.0032472
0.00125089
0.00513168
0.0346336
0.0222762
0.00375616
0.00840343
0.0132156
0.0234221
0.0220244
0.0248782
0.029921
0.0303696
0.0269552
0.0499683
0.0418427
0.0448108
0.0277385
0.0315018
0.0300236
0.045558
0.0350765
0.0355864
0.0344015
0.0415551
0.0390934
0.0394162
0.0303083
0.0115453
0.0284448
0.011683
0.0273177
0.00757796
0.00769082
0.00286706
0.00506848
0.0335605
0.0132954
0.0339852
0.0232291
0.00309734
0.00231941
0.0372549
0.0239707
0.0316458
0.020117
0.055809
0.00618811
0.0218586
0.0446507
0.0553576
0.0550229
0.0372423
0.028368
0.0249337
0.0390109
0.049073
0.0418124
0.0427552
0.0381442
0.0657824
0.0316586
0.0840114
0.0765173
0.0784392
0.0806954
0.0639432
0.117252
0.120783
0.0362421
0.0277139
0.0457673
0.0562079
1.48837
0.0457546
0.0927259
0.714334
0.0100266
0.00881504
0.0139095
0.00398396
0.0115869
0.00862616
0.00660753
0.00427756
0.00131944
0.0153355
0.0106528
0.00413336
0.0278954
0.00121591
0.00935329
0.00299385
0.0152362
0.0786557
0.00116914
0.0249863
0.0371996
0.00357955
0.0033399
0.001908
0.00206625
0.00558955
0.00363043
0.00597716
0.00162914
0.0014737
0.00150078
0.0018816
0.00157508
0.00167945
0.00192226
0.00269932
0.00173352
0.00129359
0.00187356
0.00182232
0.00590045
0.00192856
0.00251056
0.00406546
0.0190018
0.00132319
0.00231557
0.00728988
0.0173348
0.00219426
0.000865151
0.00119915
0.00372751
0.00284741
0.0037101
0.00409849
0.00441
0.00278873
0.00221425
0.00592702
0.00273709
0.00451133
0.00319056
0.00252146
0.00242288
0.00255452
0.00215609
0.00204348
0.00195614
0.00194895
0.00193281
0.00200569
0.00196049
0.00196798
0.00195399
0.0019563
0.002069
0.00221215
0.00201872
0.00195595
0.00197151
0.00170477
0.00236101
0.00229645
0.00203141
0.00177973
0.00200836
0.00589741
0.00368398
0.0202696
0.0117392
0.00431861
0.0206648
0.0116503
0.00558283
0.0018644
0.00129984
0.00194075
0.00217476
0.00263364
0.00197881
0.0202609
0.0211515
0.00516424
0.0247795
0.0185094
0.0204345
0.0248377
0.0244225
0.010166
0.0100596
0.0222383
0.0278472
0.025271
0.0204979
0.0181022
0.0259999
0.0195911
0.00741083
0.0041301
0.00386372
0.00463833
0.00366692
0.010862
0.0236334
0.00419942
0.0148671
0.0105223
0.00377287
0.0172437
0.0152855
0.00433922
0.0064609
0.00524338
0.00170649
0.00515767
0.0247986
0.0169706
0.00569164
0.000120658
0.000581172
0.0153348
0.0128311
0.0044245
0.00281082
0.00301257
0.00269743
0.00217087
0.00210767
0.00245951
0.00229723
0.00280305
0.00228731
0.00240088
0.00325318
0.00355535
0.00232086
0.0023359
0.00213068
0.00202031
0.00202022
0.0021903
0.0020436
0.00199213
0.00198034
0.0019793
0.00211957
0.00202922
0.00209932
0.00200625
0.00201934
0.00201387
0.00198822
0.00200045
0.0121609
0.0042615
0.00543977
0.00997737
0.00384521
0.00343119
0.172411
0.0234311
0.0204034
1.86931e-05
0.379793
0.0688734
0.00571048
0.174486
0.00255714
0.0731462
0.0795588
0.727254
0.843647
0.105458
0.732493
0.947419
0.0315984
0.0588777
0.0302108
0.00963921
0.00314973
0.00278917
0.0452843
0.0237269
0.0261125
0.00120472
0.00201556
0.0315277
0.000875572
0.0218091
0.0189841
0.00330067
0.00255683
0.00166359
0.0173587
0.00519097
0.00652211
0.0064297
0.00532369
0.00938297
0.00905246
0.00459824
0.00407885
0.00900334
0.00778342
0.00984013
0.0198937
0.035585
0.0149145
0.0179782
0.0117899
0.00874951
0.0140108
0.0248754
0.0304335
0.0213517
0.034135
0.0154742
0.00307273
0.00485013
0.00450845
0.0184416
0.0103262
0.0329737
0.028857
0.0179016
0.00402421
0.00577182
0.0120111
0.0361702
0.0841334
0.0250452
0.00526984
0.00541567
0.0127988
0.0815913
0.0211785
0.0147288
0.00809962
0.00384714
0.0229505
0.020874
0.00511384
0.00495085
0.00335924
0.0201884
0.0141278
0.0295203
0.0469852
0.00554293
0.0164713
0.0202197
0.00207331
0.0120589
0.0109815
0.005001
0.00468887
0.0256487
0.0177116
0.0167536
0.0297022
0.0202566
0.0170973
0.00617221
0.00381018
0.0129678
0.00491064
0.00189044
0.00158866
0.0019044
0.00187089
0.0018173
0.000987656
0.00192054
0.00521598
0.00199141
0.00204967
0.001979
0.00234898
0.00200259
0.00202379
0.00183615
0.00205557
0.00200253
0.00195743
0.00195723
0.00194221
0.00193704
0.00193359
0.00192391
0.00195886
0.00195867
0.00195859
0.00195805
0.00196035
0.00193673
0.00195777
0.00194948
0.00194473
0.00194952
0.00195525
0.00188783
0.00195794
0.00201763
0.00198898
0.00193761
0.00195805
0.00195816
0.00195796
0.00195797
0.00195841
0.0019579
0.00195886
0.00195822
0.00195809
0.0019602
0.00195821
0.00195844
0.00195816
0.00195817
0.00195985
0.00195811
0.00195836
0.00196209
0.0177177
0.0101676
0.00871781
0.00870792
0.00870797
0.00789609
0.0329274
0.0146843
0.0100979
0.0158262
0.00922839
0.00906416
0.0193037
0.0140591
0.0523453
0.034942
0.020489
0.00272239
0.00190613
0.00252013
0.0229216
0.0132675
0.00191601
0.00258375
0.00241813
0.000383044
0.00579876
0.00415947
0.00772475
0.00169671
0.00191164
0.00619982
0.0100701
0.00193443
0.00199727
0.00200285
0.00191444
0.00201856
0.00168908
0.00117564
0.0126054
0.00920929
0.00209276
0.00153042
0.00292529
0.00575626
0.0172066
0.00487086
0.00358089
0.00850328
0.0141488
0.0714819
0.0970172
0.020939
0.052202
0.0035492
0.00834499
0.0033218
0.00195767
0.00196247
0.00197038
0.00196955
0.00195869
0.00196591
0.00195875
0.00195628
0.00195868
0.00195932
0.00196047
0.00195915
0.00195791
0.00195806
0.00191697
0.00205714
0.00192306
0.00201848
0.00193834
0.00201925
0.00197857
0.00234249
0.00357446
0.00252104
0.00359175
0.002044
0.00216822
0.0023902
0.00192278
0.00694862
0.00637392
0.0100654
0.00814017
0.00552141
0.00516691
0.0158731
0.0183999
0.00509999
0.0049755
0.00720994
0.0116869
0.00488831
0.00649743
0.00540443
0.00583633
0.00596695
0.00828679
0.0292326
0.0415008
0.0248564
0.0241541
0.0275548
0.0237375
0.0281271
0.0222402
0.0220838
0.0174738
0.0225079
0.0252643
0.0139132
0.0300624
0.00485512
0.00364102
0.00287038
0.00611212
0.0118977
0.0139108
0.028222
0.019509
0.0152203
0.00294567
0.00338003
0.000962337
0.0148505
0.0159196
0.00293504
0.00318665
0.00247861
0.00332406
0.00885554
0.0235596
0.00775072
0.0115783
0.0224948
0.0725951
0.018746
0.00258039
0.00602139
0.0602005
0.0399328
0.081021
0.025559
0.00262054
0.00214022
0.0232402
0.0231061
0.0107227
0.00212248
0.00209777
0.00206927
0.00215509
0.00203591
0.00206685
0.00206344
0.00204648
0.0020157
0.00202718
0.0020521
0.00203258
0.00208708
0.00203085
0.00201039
0.00212255
0.00204986
0.00204777
0.00202349
0.00297795
0.00304727
0.00209972
0.00222187
0.00954968
0.0071198
0.00262777
0.00387174
0.00233821
0.00521902
0.00320812
0.00332085
0.00309537
0.00355262
0.00398443
0.00322645
0.00273356
0.00527817
0.0276818
0.0292225
0.0241835
0.0223404
0.037117
0.0306318
0.0358379
0.0301475
0.0281478
0.0469909
0.0354648
0.0371575
0.0369808
0.044318
0.0598566
0.0572235
0.00204492
0.00198567
0.00199061
0.00199776
0.00200652
0.00199238
0.00202485
0.00204875
0.00198286
0.00198512
0.00201962
0.00200086
0.00203047
0.00196992
0.00196918
0.00196862
0.0019722
0.00196217
0.00196354
0.00196685
0.00196664
0.00196275
0.00196262
0.00196381
0.00196203
0.00196518
0.00196229
0.00196215
0.00206389
0.00227181
0.00203363
0.00217251
0.00213932
0.00173939
0.00204315
0.00211725
0.00206842
0.00204863
0.00209874
0.00210161
0.00205701
0.00204321
0.00217802
0.00221176
0.00468553
0.00419061
0.0040504
0.00309148
0.00326302
0.00381056
0.00287158
0.0026887
0.00314227
0.00425994
0.00696289
0.00689065
0.0046766
0.00348437
0.00341465
0.00324959
0.0065154
0.00406903
0.00415807
0.00435418
0.00869922
0.00878679
0.00549477
0.00402777
0.00675293
0.00571641
0.0112616
0.00435716
0.0113527
0.0048445
0.00415685
0.0181548
0.00749478
0.0083394
0.0134973
0.0231316
0.028509
0.0151686
0.0245996
0.0316184
0.018393
0.0337021
0.01838
0.0419852
0.0408942
0.0345075
0.0609484
0.0551656
0.0135349
0.0189548
0.0238005
0.0637003
0.0273975
0.0110257
0.00964812
0.00950008
0.0059862
0.0120768
0.00968052
0.00719073
0.00655294
0.0083447
0.0100245
0.00434287
0.00405369
0.0039627
0.00533597
0.00755696
0.00212903
0.00207373
0.00206256
0.00206015
0.00217247
0.00220861
0.0021659
0.0021423
0.00221197
0.00280141
0.00355701
0.00256798
0.00246099
0.00322293
0.00220931
0.00214074
0.0025099
0.00216006
0.00206454
0.00207823
0.00210401
0.00220644
0.0023442
0.00233641
0.0021178
0.00221664
0.00237666
0.00257004
0.00321121
0.00222307
0.00253525
0.00198581
0.00207906
0.00197007
0.00200995
0.00206338
0.00222681
0.00203863
0.00192417
0.00202252
0.00197321
0.00202855
0.00201398
0.0020504
0.00199902
0.00201103
0.00203869
0.00205645
0.00198213
0.00203053
0.00205082
0.00198209
0.00200972
0.0019856
0.00203284
0.00201509
0.00215286
0.00221373
0.00216361
0.0021101
0.00198245
0.00199102
0.00201304
0.00199086
0.00206337
0.00206407
0.00205543
0.00208032
0.00207357
0.00215945
0.00208596
0.00205756
0.00222274
0.00199986
0.00211696
0.00211421
0.00203053
0.00196358
0.00196402
0.00196536
0.00196361
0.00196412
0.00196284
0.00196351
0.00196325
0.00196506
0.0019629
0.00196567
0.00196346
0.00196398
0.00195883
0.00196214
0.00196642
0.00196342
0.00196242
0.00195651
0.00196273
0.0019581
0.0019617
0.00196558
0.00196399
0.00196359
0.00196451
0.00203107
0.00204238
0.00205694
0.00205175
0.00199617
0.00200264
0.00200115
0.00209951
0.00211796
0.00207537
0.00203191
0.00201474
0.00206646
0.00200542
0.00202342
0.00206764
0.00230455
0.00201849
0.00207381
0.00211637
0.00234176
0.00209318
0.002058
0.00233309
0.00228318
0.00204751
0.00202821
0.00214714
0.00227004
0.00211308
0.00203129
0.0019639
0.00196869
0.0019651
0.00196404
0.00197264
0.0019797
0.00200773
0.00197617
0.00197388
0.00196732
0.00196786
0.00197498
0.0019723
0.00205587
0.00206137
0.00213994
0.00204682
0.00203129
0.00210059
0.00230966
0.00227156
0.00217446
0.00214534
0.00219488
0.00212565
0.00216119
0.00199216
0.00197099
0.00197169
0.00198203
0.00198798
0.00201345
0.00200434
0.00202338
0.0019748
0.00197358
0.00198919
0.0019759
0.00197342
0.00198105
0.00198097
0.0019661
0.00195988
0.00196463
0.00196718
0.00197394
0.00195541
0.00195746
0.0019586
0.00195629
0.00197713
0.00197562
0.00197319
0.00196788
0.00196075
0.00195861
0.00196037
0.00197121
0.00196638
0.00196498
0.00196562
0.0019668
0.00196271
0.00196556
0.00196596
0.00196544
0.00196675
0.00196898
0.00196722
0.00196811
0.00196877
0.00186323
0.00202106
0.00204897
0.00207481
0.00207607
0.00211566
0.0022222
0.00205076
0.00205888
0.00206977
0.00210707
0.00198478
0.00198632
0.00197576
0.00197026
0.00196593
0.00197259
0.00196519
0.00196635
0.00196741
0.00196695
0.0019698
0.00197037
0.00196858
0.00308445
0.00388786
0.00227991
0.00669745
0.00382693
0.00318493
0.00355716
0.00350815
0.00335722
0.00383971
0.00254942
0.00298941
0.00320708
0.00278802
0.00416037
0.00238332
0.00283813
0.00295704
0.0035793
0.00262518
0.00304274
0.00277174
0.00198257
0.00197591
0.00197258
0.00195655
0.00198074
0.00198083
0.00196772
0.0019822
0.00196527
0.001969
0.00196364
0.00198716
0.00197269
0.00198459
0.00200097
0.00198437
0.00196934
0.0019745
0.00197781
0.00197592
0.00197379
0.00197983
0.00198447
0.00196734
0.0019685
0.00197506
0.00198521
0.00197572
0.00196734
0.0019781
0.0159744
0.0146683
0.0186417
0.0125924
0.0133132
0.0173076
0.0186159
0.0153411
0.0172692
0.0158554
0.0124484
0.0174641
0.0142916
0.00209088
0.00228265
0.00232294
0.00226519
0.00243519
0.00212675
0.00209721
0.00222964
0.00223568
0.00218129
0.00217293
0.001584
0.00205038
0.00215279
0.00229859
0.00197155
0.00282984
0.000634764
0.00317996
1.45068e-06
0.00202259
0.00196089
0.00196524
0.00195998
0.00196221
0.00196919
0.0019656
0.00197956
0.001965
0.00190008
0.00190222
0.00197204
0.00201132
0.00194906
0.0019811
0.00190221
0.00191522
0.0019706
0.00195557
0.00197555
0.00198725
0.00198107
0.00197994
0.00198031
0.00198259
0.00196918
0.0019676
0.00198069
0.00196689
0.0019701
0.00198836
0.00196904
0.00196978
0.00197894
0.00198034
0.00196674
0.00197864
0.0019954
0.001967
0.00197692
0.00196617
0.0019711
0.00196616
0.00197814
0.00197766
0.00197667
0.00196088
0.00197747
0.00197933
0.00195402
0.0019677
0.00350038
0.00320155
0.0035442
0.00368027
0.0035432
0.00324573
0.00299189
0.00423161
0.00395549
0.00501459
0.00447972
0.00520511
0.00498679
0.00466359
0.00323762
0.00329496
0.00299846
0.00239547
0.00263789
0.00240706
0.00199437
0.00205864
0.00279078
0.0022998
0.00200468
0.00198674
0.00242917
0.00245835
0.00202707
0.00200258
0.00196224
0.00203261
0.00208653
0.04114
0.0435768
0.0918864
0.0902339
0.0880199
0.0969403
0.140687
0.141116
0.0575312
0.04903
0.133201
0.123272
0.116638
0.116753
0.190138
0.060033
0.080569
0.125852
0.151872
0.0712324
0.00321152
0.00402053
0.00235856
0.00253775
0.00306543
0.00261655
0.00246817
0.00235367
0.00400073
0.00500411
0.00232645
0.00253572
0.00293824
0.00276605
0.0019718
0.00199503
0.00220415
0.00213094
0.00210002
0.00209983
0.00191288
0.00208241
0.00258142
0.00240656
0.00245475
0.00207712
0.00203879
0.00205384
0.00206495
0.00214548
0.00233103
0.00232269
0.00347309
0.00495914
0.00573649
0.0132946
0.0203587
0.00627005
0.0113159
0.00280831
0.0234
0.0250187
0.00386939
0.00318918
0.00374089
0.00483249
0.00554102
0.000619425
0.0192329
0.0156142
0.00215683
0.00439746
0.00111658
0.0017177
0.00208475
0.00209984
0.00205838
0.00206135
0.00203476
0.00204768
0.00203765
0.00199435
0.00201984
0.00208986
0.00206886
0.00200885
0.00199535
0.00199937
0.00200189
0.00206661
0.00200013
0.0020101
0.00198882
0.00200323
0.00306973
0.00304924
0.003529
0.0022373
0.0026512
0.00212628
0.00399228
0.00221301
0.00235778
0.00205836
0.00210325
0.00304937
0.00213017
0.00207004
0.00282074
0.0156573
0.0134937
0.0120346
0.0198989
0.0220449
0.0153305
0.0101889
0.00989342
0.00197725
0.00201793
0.00199043
0.00198349
0.00198011
0.00198909
0.00199
0.00201164
0.00199296
0.00199211
0.00201487
0.00199428
0.00172515
0.00236161
0.0153545
0.0021828
0.00165076
0.00276467
0.0171636
0.00857504
0.0172495
0.0178228
0.0416663
0.00904603
0.0297045
0.0610773
0.00834369
0.00293578
0.00308037
0.00276303
0.00197544
0.00197008
0.00197219
0.00197163
0.00196974
0.00197534
0.00197389
0.0019518
0.0019719
0.0019741
0.00197939
0.00194758
0.00196674
0.001927
0.00195385
0.00197745
0.00197601
0.0019622
0.00195781
0.00195713
0.00195531
0.00195577
0.00196518
0.00196236
0.00195772
0.00195823
0.0019591
0.00195977
0.00195644
0.00195765
0.00196684
0.00195938
0.00195766
0.00195764
0.00195891
0.00195775
0.0019579
0.00195786
0.00195801
0.00195802
0.014763
0.0133786
0.0148166
0.0174656
0.014106
0.0171138
0.0146463
0.0128543
0.0162264
0.0177582
0.0172255
0.0158174
0.0155515
0.0144506
0.0159804
0.0137958
0.0133953
0.0240576
0.0164024
0.0148366
0.0122607
0.012305
0.0067842
0.0112163
0.00748604
0.0081401
0.00428131
0.00627364
0.00675779
0.00832248
0.00676249
0.00432763
0.00684469
0.00916687
0.00198054
0.00199222
0.00198506
0.00198934
0.0019932
0.00199739
0.00199333
0.00198766
0.00199658
0.00197169
0.00199432
0.00200656
0.00199373
0.00197119
0.00194482
0.00198175
0.00195814
0.00197255