/*--------------------------------*- C++ -*----------------------------------*\
  =========                 |
  \\      /  F ield         | OpenFOAM: The Open Source CFD Toolbox
   \\    /   O peration     | Website:  https://openfoam.org
    \\  /    A nd           | Version:  10
     \\/     M anipulation  |
\*---------------------------------------------------------------------------*/
FoamFile
{
    format      ascii;
    class       volScalarField;
    location    "1";
    object      nut;
}
// * * * * * * * * * * * * * * * * * * * * * * * * * * * * * * * * * * * * * //

dimensions      [0 2 -1 0 0 0 0];

internalField   nonuniform List<scalar> 
75457
(
0.00530906
0.00325439
0.0033795
0.00303052
0.0106705
0.00315347
0.00826995
0.00244113
0.00349212
0.00319551
0.00298644
0.0110871
0.0127151
0.00416369
0.000358288
0.000358367
0.000358311
0.00035836
0.000358337
0.000358223
0.00035832
0.000358208
0.000358339
0.000358399
0.000358366
0.000358518
0.000358352
0.000358152
0.000358192
0.000358104
0.000357882
0.000358007
0.00035799
0.000357774
0.000357754
0.000358016
0.000357938
0.000358231
0.000358021
0.000357991
0.000358477
0.000357996
0.000357933
0.000366234
0.000370284
0.000359613
0.000359056
0.000362106
0.00117897
0.000382512
0.000801467
0.00142001
0.00451836
0.000900425
0.000437549
0.000497076
0.00380845
0.0037461
0.00195897
0.00048105
0.00304012
0.00186013
0.00442787
0.00354885
0.000270733
0.00304724
5.75813e-05
0.00353775
0.00396916
0.000431154
0.004877
0.000653672
0.00286682
0.000409625
0.00362166
0.000875635
0.000956124
0.00456298
0.00517211
0.00269476
0.00525665
0.00509276
0.0030833
0.00219501
0.004134
0.00308505
0.00371655
0.00417071
0.00402447
0.00488526
0.00331659
0.00304514
0.00662649
0.00440645
0.00488952
0.000561687
0.000479836
0.000800327
0.000835538
0.00145107
0.00152294
0.00508956
0.00516459
0.00137809
0.00101667
0.00136475
0.00898097
0.00216665
0.0100974
0.0429866
0.0665651
0.00813644
0.00785019
0.0115096
0.00186097
0.028405
0.0035071
0.0129787
0.00450463
0.00212987
0.00114783
0.000204209
0.00032256
0.00205128
0.00540385
0.00076662
0.00086162
0.000991681
0.0236078
0.000226815
0.000311652
0.00906836
0.000756883
0.00532464
0.0623443
0.043929
0.00125397
0.0822841
0.0782533
0.00857283
0.000419219
0.000721634
0.0011791
0.000406096
0.000350067
0.000865968
0.00239531
0.0021692
0.0514983
0.00770935
0.0122268
0.00839379
0.00181391
0.00765659
0.0368955
0.0524978
0.058102
0.00860818
0.00268744
0.00781556
0.0080995
0.00240454
0.00589372
0.000368946
0.000359889
0.000364195
0.000364617
0.000364114
0.000370281
0.000365658
0.000363664
0.000368818
0.00036428
0.000364562
0.000367038
0.000366745
0.00613928
0.0123784
0.0237527
0.0139858
0.0492581
0.00088911
0.204996
0.0519046
0.00948592
0.00432366
0.0175754
0.0540401
0.0493157
0.00992155
0.00203211
0.00245856
0.0051624
0.0301181
0.000671891
0.00632362
0.000522956
0.00100068
0.000577427
0.000721994
0.000414913
0.00250387
0.00471478
0.000176687
0.00207386
0.00293261
0.00456505
0.0308037
0.0246156
0.0180101
0.0121094
0.0134456
0.000345977
0.000393848
0.00983051
0.00441089
0.00110222
0.0117895
0.00108826
0.0013713
0.00609335
0.0112441
0.00379028
0.000204955
0.00444352
0.00448884
0.00117233
0.00270028
0.00825757
5.7481e-05
0.000785572
0.000732137
0.0070936
0.00264881
0.000234861
0.0016218
0.0154789
0.000168225
0.000679563
0.000727591
0.000962533
0.0125144
0.000396592
0.00577083
0.00615825
0.00577267
6.4196e-05
0.00314504
0.00819098
0.00083285
0.00399088
0.000312054
0.00529025
0.000450738
0.00966847
0.000209998
0.00204878
0.000182742
0.000892392
0.000312384
0.000597892
0.000704415
0.00261531
0.00106801
0.00449957
0.00176057
0.0256268
0.00361677
0.00139895
0.00797128
0.00152835
0.0124935
0.00266994
0.00253458
0.0068977
0.00273785
0.00788559
0.00673964
0.000693673
0.00456546
0.00982801
0.000233373
0.019435
0.000520944
0.00594536
0.000153812
0.0110683
0.00138727
0.000355387
0.00209218
0.00139615
0.00236413
0.0142605
0.00018593
0.00784151
0.000969898
0.00568037
0.0164168
0.0148006
0.00054271
0.0267088
0.0050812
0.00057384
0.00298438
0.00268846
0.00815771
0.000191148
0.00847092
0.00230327
0.000174076
0.00410056
0.00144163
0.00232279
0.00133264
0.00784066
0.00676967
0.00533043
0.0109387
0.0176894
0.00420493
0.0170863
0.0258844
0.013731
0.0232673
0.00857213
0.00164111
0.00119548
0.00136326
0.00638255
0.00226125
0.000644158
0.00161791
0.00947197
0.000258006
0.0018239
0.00168481
0.0225046
0.018631
0.00230713
0.00549965
0.00122923
0.000407575
0.000960807
0.0116926
0.0028874
0.0101
0.00936293
0.00139512
0.000905364
0.00755578
0.0040969
0.00144791
0.0160507
0.0218631
0.0193311
0.0183341
0.0135636
0.00761121
0.00420848
0.00604087
0.00078866
0.000738044
0.00103768
0.000117478
0.000632957
0.000800303
0.000934181
0.00124692
0.00176945
0.00134469
0.00531924
0.00133772
0.00221451
0.00502069
0.000692861
0.00464975
0.00302668
0.00488795
0.000149859
0.00238932
0.0132282
0.0120352
0.00360766
0.00414034
0.0059737
0.00206754
0.00157263
0.00163582
0.000622102
0.000500555
0.00124691
0.000394075
0.000399577
0.000368265
0.000373862
0.000405397
0.00040316
0.000388529
0.000406835
0.000411399
0.000421442
0.000385569
0.000384361
0.000394282
0.000394581
0.000374707
0.000397154
0.000386532
0.000388291
0.000367776
0.000368245
0.000363933
0.00036502
0.000362039
0.00036825
0.00036452
0.00036618
0.00036838
0.000369568
0.000366744
0.000363985
0.00036719
0.000382156
0.0003823
0.000365416
0.000366237
0.000373683
0.000369019
0.000365294
0.000365264
0.000379964
0.000379688
0.000372612
0.000375296
0.000373404
0.000371027
0.000370244
0.000365117
0.000372179
0.000382023
0.000371029
0.000374497
0.000376553
0.000367924
0.000436778
0.000360842
0.000361896
0.000361364
0.000360987
0.000362491
0.000355481
0.000352647
0.000361543
0.000396663
0.000355224
0.000358657
0.000355861
0.00036049
0.000354
0.00044083
0.00323201
0.00278578
0.00530197
0.00290257
0.00165837
0.00172735
0.00380958
0.00458925
0.00110649
0.00127487
0.00879284
0.00255363
0.00329578
0.0057359
0.00119294
0.000564666
0.000357808
0.00035806
0.000389591
0.00038429
0.00032331
0.000326916
0.000334093
0.000343113
0.000354573
0.000349985
0.000306682
0.000316565
0.000380925
0.000373834
0.00079032
0.000281524
0.000316796
0.000321693
0.000364036
0.000374791
0.000378775
0.000370003
0.000368205
0.000385597
0.000389486
0.000363093
0.000366834
0.00038545
0.000385243
0.000400979
0.000385013
0.000368411
0.000365672
0.00036245
0.000358533
0.000358774
0.000358491
0.000359149
0.000359354
0.000358523
0.000358731
0.00035927
0.000359112
0.00035898
0.000358974
0.000359081
0.000359136
0.000359114
0.000358827
0.000358801
0.00035908
0.000390834
0.00038563
0.000363023
0.000365436
0.000364232
0.000363448
0.000367972
0.000383284
0.000365915
0.000370402
0.000388181
0.000361806
0.000365538
0.000367325
0.000376881
0.000365795
0.000369228
0.000237808
0.000409427
0.000396321
6.02286e-06
0.000368311
0.000236368
0.000372238
0.000342788
0.000377302
0.000375106
0.000382263
0.000304164
0.000368629
0.000368927
0.000328802
0.00038076
0.000361376
0.00034784
0.000359955
0.000359236
0.000363039
0.000359776
0.000359117
0.000356467
0.000359244
0.000361626
0.000360532
0.000350048
0.000359365
0.000356734
0.000352488
0.000359327
0.000367017
0.00036529
0.000370003
0.000364762
0.000363619
0.000369126
0.000370139
0.000367155
0.000365793
0.000370473
0.000370272
0.000371149
0.000367377
0.000364339
0.000364005
0.000371727
0.000367315
0.000372446
0.000383536
0.000385651
0.000386292
0.000399192
0.000410004
0.000387996
0.000378634
0.000398735
0.000394227
0.000393342
0.000368534
0.000410942
0.00036364
0.000362849
0.00036145
0.000362835
0.000364636
0.000361557
0.000365481
0.000366558
0.000361152
0.000360023
0.000360281
0.000359094
0.000358887
0.000359367
0.000360273
0.000359546
0.000363296
0.000351699
0.000361551
0.000355246
0.000200245
0.000126021
0.000180438
0.000297233
0.000246962
0.000367132
0.000363126
0.000362849
0.000192119
0.000365671
0.000359767
0.000337037
0.000356953
0.000359298
0.000347008
0.000380706
0.000358054
0.000335418
0.000253881
0.000351039
0.000354363
0.000376253
0.000350809
0.000352505
0.000355214
0.000353043
0.000397599
0.000340054
0.000270534
0.000265001
0.000325347
0.000359016
0.000355932
0.000356847
0.000358007
0.000357846
0.000358285
0.000358436
0.000358243
0.000358269
0.000357386
0.000358202
0.000358369
0.000358075
0.000358321
0.000357916
0.000357874
0.000357851
0.000357932
0.000357847
0.000357963
0.000357858
0.000357822
0.00035786
0.000357844
0.000357802
0.000357997
0.000357843
0.000357789
0.000357846
0.00035781
0.000357797
0.000357838
0.000367817
0.000385739
0.000391337
0.000358198
0.000360628
0.000376804
0.000361586
0.000357264
0.000360816
0.000387582
0.000372754
0.000442099
0.000431892
0.000477683
0.000457679
0.000364506
0.000131439
0.00103659
0.00159112
0.000380655
0.000390208
0.000464477
0.00133394
0.000624642
0.000257466
0.00132161
0.00225877
0.0013095
0.000400606
0.000481118
0.000532487
0.000530906
0.000357608
0.000365396
0.000376275
0.000368699
0.00035184
0.000348499
0.000364621
0.000264966
0.000166507
0.000497045
0.000544804
0.000681074
0.000260434
0.000579041
0.000887227
0.000451198
0.00083582
0.00110214
0.00231383
0.000793211
0.001532
0.00042783
0.000386128
0.0161281
0.00516551
0.000574472
0.00405269
0.00276011
0.000525878
0.000451184
0.000464731
0.00046239
0.000893392
0.000525258
0.000639949
0.000933346
0.000747999
0.000547001
0.000757955
0.000592902
0.000811642
0.000367235
0.000366048
0.000354843
0.000353679
0.000358687
0.000357392
0.000360245
0.000359324
0.000399462
0.000361894
0.000359573
0.000362695
0.000348
0.000358337
0.000363942
0.000357229
0.000362488
0.000363149
0.000359735
0.000361789
0.000383643
0.000359393
0.000358697
0.000358411
0.000358948
0.00035877
0.000358463
0.000358892
0.00035896
0.000358468
0.000358569
0.000358674
0.000358592
0.000358643
0.000358919
0.000358838
0.000358602
0.000359417
0.000358751
0.000358508
0.000358334
0.000358503
0.000247694
0.000431853
0.000348507
0.000362311
0.00028588
0.00037614
0.000356753
0.000350621
0.000370509
0.0003681
0.000365293
0.000303334
0.000311933
0.000376369
0.000366004
0.000364241
0.000341885
0.000361152
0.000352756
0.000359203
0.000355043
0.000355224
0.000894756
0.0023469
0.000367323
0.000368777
0.000340835
0.00032097
0.000358803
0.00036515
0.000399264
0.000700066
0.00123587
0.00108735
0.000369187
0.000347127
0.000357732
0.000426912
0.000242917
0.000362023
0.000362411
0.000359438
0.000360934
0.000359208
0.0003597
0.000359211
0.000361304
0.00036026
0.00036106
0.000361347
0.000360316
0.000363779
0.000365502
0.000358665
0.000358735
0.00035848
0.00035864
0.000358548
0.000358547
0.000358444
0.000358665
0.000358496
0.000358345
0.000358838
0.000367858
0.000249508
0.000379779
0.000358985
0.000355471
0.000344912
0.000377988
0.000357748
0.000284029
0.000387278
0.000382908
0.000301189
0.000367435
0.000324584
0.000396384
0.000360837
0.00046273
0.000533304
0.000557565
0.000609025
0.000503239
0.000466601
0.000464638
0.0004184
0.000410567
0.000434774
0.000610864
0.000516691
0.00043443
0.00043161
0.000520381
0.000432278
0.000492799
0.000475856
0.000409438
0.000423379
0.000374172
0.000381163
0.000376033
0.000373844
0.00038692
0.000404397
0.000417349
0.000368717
0.000373319
0.000362258
0.000439912
0.000430104
0.000369572
0.000381432
0.000394233
0.000449658
0.00292698
0.00256071
0.00194286
0.00202429
0.000806333
0.000852802
0.000757386
0.00143224
0.00129857
0.00100605
0.000519589
0.000926114
0.00132185
0.000365517
0.00036989
0.000367709
0.000360249
0.000361983
0.000363346
0.000367977
0.000366351
0.000365248
0.000361233
0.000360668
0.000363288
0.000391061
0.000459025
0.000287337
0.000366813
0.000430787
0.000369523
0.000342155
0.000344051
0.000345291
0.000339844
0.000359454
0.000360001
0.00035759
0.000357535
0.000356667
0.000372009
0.000368562
0.000359397
0.000369141
0.000407428
0.000414129
0.000493189
0.000499032
0.00050324
0.000353874
0.000366942
0.000459997
0.000416864
0.000360505
0.000360672
0.000417929
0.000355921
0.00038564
0.00036145
0.000358529
0.000359429
0.000382339
0.000363003
0.00295091
0.003585
0.00118247
0.00148136
0.00250076
0.00247013
0.000998684
0.00063913
0.000742282
0.000457481
0.000375767
0.000375025
0.000685479
0.000411356
0.000377148
0.00027518
0.000372533
0.000697335
0.000560412
0.000375858
0.000364407
0.000381578
0.000260043
0.000352613
0.0003585
0.000357237
0.000512692
0.000449564
0.000353157
0.000239832
0.000410225
0.000367442
0.000857686
0.00331157
0.00646836
0.00550965
0.000511635
0.00233299
0.000337183
0.000329068
0.000496701
0.000794123
0.000539166
0.000455826
0.00168724
0.00425396
0.00727367
0.00266662
0.00469353
0.00489129
0.000446364
0.00254079
0.000363474
0.000382001
0.000376988
0.000374707
0.000381283
0.000384176
0.000375359
0.00038379
0.000390907
0.000354435
0.000399284
0.000373034
0.000378296
0.000375861
0.000375657
0.000426974
0.000443163
0.000442778
0.000480086
0.000565411
0.000500092
0.000734941
0.000375104
0.000627417
0.000625032
0.000647605
0.000674988
0.000651262
0.000822077
0.000405471
0.000453173
0.000398493
0.000396655
0.000397736
0.000417957
0.000368249
0.000365509
0.000418164
0.000377827
0.000376872
0.00036403
0.000379297
0.000361893
0.000364786
0.000363583
0.000354919
0.000357653
0.000352385
0.000351124
0.000424306
0.000442699
0.000340538
0.00035664
0.000337845
0.000342507
0.000409189
0.000407882
0.000559637
0.000411491
0.000430351
0.000451654
0.000461025
0.00063801
0.000611957
0.000370132
0.000443653
0.000366398
0.0003839
0.000383472
0.000593446
0.000421227
0.000522009
0.000615059
0.000481156
0.000366568
0.000365467
0.000375565
0.00038056
0.000554946
0.000480701
0.000363426
0.000362247
0.000363646
0.000360051
0.000303244
0.000321275
0.000364815
0.000345578
0.000349178
0.00081683
0.000406715
0.000380684
0.0072109
0.000524997
0.000367925
0.000592383
0.000671458
0.000388738
0.000376948
0.000433885
0.000423675
0.000274564
0.000961262
0.000350308
0.00040824
0.000389126
0.00037739
0.000755893
0.000426771
0.000364606
0.000357883
0.000353297
0.000360059
0.000363007
0.000435443
0.000195842
0.000362738
0.000364466
0.000339708
0.000336562
0.000317328
0.00287456
0.0170664
0.00133885
0.00576617
0.00731577
0.000439602
0.00145429
0.0005743
0.000588759
8.21751e-05
0.00293974
0.00399907
0.000678305
0.0011164
0.00338148
0.000408792
0.000690241
0.000530262
0.000607881
0.0137054
0.0218444
0.00723389
0.000162306
0.000528501
0.000420836
0.0579433
0.00576462
0.0406711
0.0065524
0.000409474
0.000638954
0.000387564
0.000457418
0.000346599
0.0113034
0.00425894
0.00507133
0.000360223
0.00036816
0.000359809
0.000360159
0.000358947
0.000358808
0.000358852
0.000359988
0.000358938
0.000358713
0.000359875
0.000359344
0.000359311
0.000359483
0.000358787
0.000359462
0.000761976
8.45269e-05
0.00154433
0.00114714
0.011138
0.00828773
0.00103687
0.00722214
0.0133759
0.00276256
0.00182884
0.00338988
0.000563982
0.00471337
0.000402989
0.0028631
0.000239946
0.00071468
0.000253866
0.00315208
0.000152606
0.00453372
0.00469136
0.000773072
0.00273064
0.00034948
0.00570167
0.000699054
0.00397881
0.000309543
0.000654728
0.000760415
0.000799924
0.000821631
0.00168622
0.00202542
0.00477092
0.00979489
0.00455111
0.0343652
0.000522994
0.000515401
0.0116071
0.0081999
0.015906
0.0335943
0.00262671
0.0148647
0.00076961
0.000822503
0.00048977
0.00341134
0.000335005
0.000534754
0.000177165
0.00673254
0.00018325
0.00242714
0.000422439
0.00246564
0.000262133
0.000305153
0.00446177
0.00204112
0.00029598
0.00041697
0.000494037
0.000404635
0.000331374
0.000347854
0.000365869
0.000308191
0.000348107
0.000349559
0.000350765
0.000351053
0.000415299
0.000430643
0.000332143
0.000368714
0.000315416
0.000292542
0.000333936
0.000401104
0.000359694
0.000381253
0.00036378
0.000332715
0.000350969
0.000479655
0.000170898
0.000284963
0.000422281
0.00031239
0.00159985
0.0034154
0.000952741
0.000910204
0.000841614
0.000805205
0.000787376
0.000927464
0.000786354
0.00116011
0.00140087
0.0022913
0.0015417
0.000463553
0.00112346
0.000747183
0.000706547
0.00122229
0.00137467
0.003048
0.00135557
0.000689274
0.000705035
0.00068313
0.000406977
0.000791651
0.000483664
0.000128654
0.000260233
0.000593286
0.000458448
0.00051828
0.000545121
0.000878355
0.000499125
0.000126565
0.000154904
0.000739436
0.000594911
0.00107155
0.000533137
0.00062451
0.000561154
0.000407879
0.000486812
0.000395277
0.000410601
0.000356525
0.000998393
0.00107125
0.000423567
0.000446959
0.00117692
0.00127653
0.000438741
0.000448766
0.000240176
0.00057893
0.000499685
0.00109503
0.000502796
0.000262714
0.000366557
0.000349449
0.000326574
0.000317886
0.000387193
0.00686179
0.011096
0.00203131
0.00155426
0.000805332
0.00114935
0.000176953
0.000669153
0.000611425
0.00319469
0.000328921
0.00021966
0.00024437
0.000570839
0.002092
0.0010674
0.000800402
0.00108017
0.000776897
0.000736599
0.000433879
0.000589854
0.000536632
0.000236909
0.000931709
0.00517934
0.00369115
0.000646949
0.00128289
0.00200038
0.000956811
0.000966918
0.0010294
0.00114877
0.00099843
0.000980105
0.00164679
0.000963323
0.00109372
0.000758362
0.000974961
0.000947071
0.00101894
0.00103871
0.00109392
0.00110126
0.00106793
0.00101056
0.000998096
0.00103214
0.00275043
0.00684318
0.0022526
0.00808275
0.00148439
0.00153722
0.000533365
0.000959052
0.00798679
0.0025837
0.000337148
0.00571318
0.00061184
0.0004529
0.00586998
0.0038504
0.000312219
0.00332232
0.000546121
0.00129102
0.000713849
0.00118995
0.00133488
0.000984537
0.000884573
0.000952293
0.00101467
0.000987468
0.00104171
0.000995783
0.000943493
0.00107141
0.00105125
0.000770971
0.00106324
0.000944667
0.00141898
0.0544298
0.0108831
0.0847458
0.00089347
0.00767521
0.00566927
0.00953563
0.0119733
0.0110638
0.00888179
0.124823
0.0524207
0.00092694
0.000872446
0.000914674
0.000274547
0.000922595
0.000840294
0.000737251
0.000509561
9.43858e-05
0.000998322
0.00091016
0.000335472
0.00225771
8.55309e-05
0.000926089
0.000254958
0.00125642
0.0069409
7.64304e-05
0.00248442
0.00379117
0.000683983
0.000629857
0.000348461
0.00037799
0.0010623
0.000679943
0.00115228
0.000300395
0.000272563
0.000280861
0.00034376
0.000291878
0.000310146
0.000351074
0.000497094
0.000319523
0.000243371
0.000342887
0.000339596
0.001121
0.000359313
0.000457054
0.000748412
0.00379252
0.000243974
0.000421207
0.0013625
0.00353852
0.000400638
0.00016298
0.000213654
0.000679444
0.000519412
0.000606219
0.000681189
0.000757572
0.000448685
0.000372474
0.00111272
0.000515776
0.000824516
0.000503985
0.000394618
0.000443473
0.000426307
0.000364531
0.000347125
0.000356712
0.000356408
0.000354685
0.000372375
0.000356138
0.000358154
0.000354603
0.00035558
0.000387189
0.00041804
0.000368405
0.000355453
0.000359573
0.000315875
0.000440546
0.000427183
0.000368948
0.000321215
0.000363319
0.00111782
0.00068746
0.00439863
0.00256128
0.000846099
0.00421197
0.00233307
0.00101826
0.000408023
0.000235576
0.000345907
0.000391994
0.000483481
0.000364352
0.000929263
0.00095891
0.000308874
0.00136297
0.000943791
0.000930969
0.00098327
0.00095669
0.000544982
0.000506467
0.000871628
0.000925294
0.00102081
0.00076898
0.00076049
0.00103217
0.000813089
0.000865195
0.000566402
0.000564183
0.000596178
0.00054301
0.000987836
0.00141072
0.000611033
0.00131363
0.00105125
0.000556531
0.00151909
0.0012336
0.000632215
0.000862516
0.000279031
7.55101e-05
0.000678174
0.00416457
0.00305289
0.00110502
2.29613e-05
0.000112698
0.00279569
0.00241813
0.000824379
0.000533603
0.000568825
0.000493863
0.000400112
0.00040198
0.000449371
0.000421257
0.00052299
0.000419738
0.000437882
0.000600595
0.000672136
0.000430165
0.000436362
0.00037801
0.000364996
0.000364961
0.000384754
0.000367799
0.000361753
0.000360385
0.000360269
0.000376766
0.000366179
0.000374274
0.000363446
0.00036505
0.00036424
0.000361334
0.000362807
0.00235731
0.000800612
0.00105157
0.0019686
0.000794378
0.000671655
0.0384665
0.0071816
0.0039855
5.52183e-06
0.00508687
0.0132024
0.00109865
0.0290316
0.000493978
0.0184906
0.014419
0.0763148
0.0114128
0.0175398
0.0699158
0.0129353
0.0058785
0.000850975
0.00551913
0.0019065
0.000602678
0.000524686
0.000653356
0.00454086
0.00467113
0.000219805
0.000374383
0.00674792
0.000161068
0.00420467
0.0037287
0.00061682
0.000473009
0.000305858
0.00363736
0.000652629
0.000759109
0.000750978
0.000656597
0.00102082
0.000967351
0.000621306
0.00057984
0.00105445
0.000945899
0.0011633
0.00229742
0.00258775
0.00106837
0.000681067
0.00146488
0.00104485
0.00126467
0.000670505
0.00281948
0.00324684
0.00521384
0.00430008
0.000578545
0.000949436
0.00090489
0.00375215
0.00207143
0.0119071
0.00685955
0.0042429
0.000860546
0.00116084
0.00248075
0.00608642
0.000787117
0.000234293
0.00105083
0.00116928
0.00232233
0.000764817
0.00452982
0.00274942
0.00162949
0.000833082
0.0073828
0.000241633
0.000966845
0.000929024
0.000625125
0.00413622
0.00291144
0.00394388
0.000548017
0.00121224
0.00350118
0.0041908
0.000387126
0.00324165
0.00275255
0.00101503
0.00095071
0.00499945
0.00320204
0.00268808
0.000320365
0.00516358
0.00283303
0.00126885
0.000784852
0.00261626
0.00101533
0.000351541
0.000291378
0.0003478
0.00034597
0.000334951
0.000177427
0.000350749
0.00100207
0.000362058
0.000372692
0.000364676
0.000436151
0.000363626
0.000367847
0.000334575
0.00037487
0.000363424
0.000357642
0.000357653
0.000354915
0.000353176
0.000352171
0.000350923
0.000357953
0.000357966
0.000357902
0.000357738
0.000358234
0.000355225
0.000357724
0.000356036
0.000355202
0.00035738
0.000357266
0.00034354
0.000357729
0.000369763
0.000363149
0.000354463
0.000357829
0.000357816
0.000357808
0.000357801
0.000357832
0.000357719
0.000357909
0.000357829
0.000357837
0.000358164
0.000357778
0.000357842
0.000357842
0.000357763
0.000358049
0.000357732
0.000357812
0.000358509
0.00214713
0.00136849
0.00104244
0.00110684
0.00098441
0.00104986
0.0031824
0.00209536
0.00137649
0.0017283
0.00119011
0.0011886
0.00254265
0.00189873
0.00363541
0.00360596
0.00204972
0.00051409
0.000348524
0.000473044
0.00467337
0.00281471
0.000350001
0.000485267
0.00045002
7.09621e-05
0.00117545
0.000825173
0.00163931
0.00030889
0.000349111
0.00140161
0.0022759
0.000353152
0.000364756
0.000365717
0.00034832
0.00036857
0.000305038
0.000209577
0.00240121
0.00199551
0.000379134
0.000277093
0.000533204
0.00113703
0.00338154
0.000958148
0.000794326
0.00169178
0.0029249
0.00830667
0.000974176
0.00465259
0.00052383
0.000666176
0.00160809
0.000616441
0.000357587
0.000358578
0.000360342
0.000359865
0.000357843
0.000359743
0.00035835
0.000357642
0.000357934
0.000358018
0.000358378
0.000358185
0.000357926
0.000357925
0.000348301
0.000376254
0.000349415
0.00036882
0.000355639
0.000369051
0.000360832
0.000438834
0.000682003
0.00047507
0.000689903
0.000379192
0.000399929
0.000444163
0.000348847
0.00057992
0.000307995
0.000302358
0.000221975
0.000314559
0.000166473
0.00172333
0.00166053
0.000383223
0.00053867
0.000810413
0.0011468
0.00055261
0.00075374
0.0003807
0.000710008
0.000751834
0.00101386
0.00143689
0.00170796
0.000976228
0.00118115
0.00129237
0.0010982
0.00119131
0.00112805
0.000941239
0.000902588
0.00428503
0.00035926
0.00254561
0.000429071
0.000882081
0.000669885
0.000528494
0.00110803
0.00218218
0.00252714
0.00504133
0.00422795
0.00302669
0.000536003
0.000618925
0.000180106
0.00269391
0.00307442
0.00055778
0.00057738
0.000457729
0.00062455
0.00223937
0.00674281
0.00134456
0.00210437
0.00435354
0.00085843
0.00394983
0.000453877
0.00115692
0.000705524
0.00432388
0.000940121
0.00617724
0.00046587
0.000394642
0.00516275
0.00565609
0.00260822
0.000380646
0.000377256
0.00037236
0.000385457
0.000368069
0.000371086
0.00037173
0.00036934
0.000365151
0.000366132
0.000368842
0.00036749
0.000375531
0.00036744
0.000363967
0.000375702
0.000367799
0.000367707
0.000365868
0.000469154
0.000475629
0.000326318
0.000344562
0.00166359
0.00116367
0.000424002
0.000637001
0.000389847
0.000887781
0.000476013
0.000505834
0.000483535
0.000521911
0.000627241
0.000489446
0.000431982
0.0007992
0.000945837
0.000974494
0.000967816
0.000946864
0.000956803
0.000957653
0.000976086
0.000974041
0.000970627
0.00102441
0.000993634
0.000989999
0.000994311
0.00100634
0.00102909
0.00102361
0.000367084
0.000360835
0.000361349
0.000362102
0.000363011
0.000361502
0.000365017
0.0003676
0.000360508
0.000360758
0.000364412
0.000362441
0.00036554
0.000359126
0.000359067
0.000359017
0.000359375
0.000358297
0.000358456
0.000358824
0.000358805
0.000358371
0.00035837
0.00035847
0.000358285
0.000358617
0.000358325
0.000358312
0.000368756
0.000393323
0.000365433
0.000381777
0.000374553
0.00030083
0.000366802
0.000375593
0.000368943
0.000369394
0.000372419
0.000362652
0.000368449
0.000366657
0.000374176
0.000371488
0.000648417
0.000611365
0.00059692
0.000501395
0.000520049
0.000576273
0.000477204
0.000454769
0.000508076
0.000609591
0.000787118
0.000778479
0.000643033
0.000543532
0.000536312
0.000519598
0.000765039
0.00060013
0.000608804
0.000621867
0.0012401
0.00121585
0.000860724
0.000631627
0.000900526
0.000920652
0.00148108
0.000727273
0.00164024
0.000802833
0.000672905
0.00235278
0.00116075
0.00108791
0.00160362
0.00240661
0.0025991
0.00139129
0.00267783
0.00295683
0.00225494
0.00292597
0.00165188
0.00386267
0.0032317
0.00336942
0.00428638
0.00446072
0.00202714
0.00260948
0.00341875
0.00551574
0.003025
0.000898216
0.000883896
0.000869438
0.000728626
0.000920365
0.000868456
0.000798282
0.000766673
0.000844747
0.000877733
0.000623203
0.000598299
0.000588993
0.000699235
0.000808855
0.000377435
0.000367943
0.000365498
0.000365784
0.000381029
0.000390298
0.000382481
0.000377694
0.000385678
0.000469355
0.000552996
0.00043998
0.00042775
0.000515749
0.000392992
0.000382552
0.000432569
0.00038521
0.000371654
0.000374172
0.000377947
0.000392346
0.000411421
0.000409813
0.000380288
0.000393907
0.000415214
0.000439789
0.000514685
0.000394734
0.000435568
0.000359144
0.00037766
0.000357641
0.000363372
0.000374012
0.000404074
0.00036674
0.000348895
0.000367218
0.000357939
0.000367561
0.00036331
0.000368481
0.000362926
0.000363957
0.000370153
0.00037415
0.000358822
0.000365691
0.000373054
0.000360454
0.000363454
0.000360956
0.000365873
0.000364006
0.000378649
0.000385383
0.000379722
0.000374219
0.00036043
0.00036138
0.000363613
0.000361167
0.000368778
0.00036899
0.000368226
0.000371041
0.000370286
0.000378761
0.000371592
0.000368579
0.000385898
0.000362353
0.000374429
0.000374326
0.000365257
0.00035849
0.000358549
0.00035867
0.000358472
0.000358563
0.000358403
0.00035857
0.000358477
0.000358667
0.000358456
0.000358733
0.00035848
0.000358557
0.000357639
0.000358355
0.000358983
0.000358683
0.000358358
0.00035727
0.00035854
0.000357604
0.000358379
0.000359105
0.000358612
0.000358732
0.000358892
0.000367337
0.0003685
0.000370273
0.000368524
0.000362219
0.000362831
0.000362778
0.000370843
0.000365455
0.000365276
0.000356465
0.000364796
0.000367431
0.000363157
0.000365183
0.00037218
0.000410775
0.000364588
0.00037
0.000373977
0.000396196
0.000372019
0.000368291
0.00039552
0.000391506
0.000367365
0.000365304
0.000377607
0.000389336
0.000374164
0.000365692
0.000358578
0.000359336
0.000358741
0.000358551
0.00035965
0.000360928
0.000365067
0.000360342
0.000359957
0.000359049
0.000359102
0.000360148
0.000359722
0.000368379
0.000368767
0.000375079
0.000367578
0.000365632
0.000372374
0.000394939
0.000390185
0.000379031
0.000377388
0.000381611
0.000375776
0.000378863
0.000361604
0.000359217
0.000359274
0.000360372
0.000360884
0.000363631
0.000362394
0.000364313
0.000359666
0.000359527
0.000361228
0.000359945
0.000359369
0.00036036
0.000360386
0.00035862
0.000357711
0.000358903
0.000358763
0.000360209
0.000356951
0.000357412
0.000357576
0.000357152
0.000360967
0.000360963
0.000360492
0.000358871
0.000358002
0.0003576
0.000357955
0.000359466
0.000358634
0.000358641
0.000358783
0.000358868
0.000358152
0.000358756
0.000358734
0.000358701
0.000358942
0.000359115
0.0003589
0.000359047
0.000359089
0.000330983
0.000357291
0.000357896
0.000369142
0.000366665
0.000375022
0.000390893
0.000366996
0.000368534
0.000370394
0.000377377
0.000360677
0.00036086
0.000359699
0.000359196
0.000358709
0.000359436
0.000358627
0.000358764
0.00035888
0.000358824
0.000359132
0.000359181
0.000358981
0.000434532
0.000526967
0.000314864
0.00069202
0.00052913
0.000462672
0.000505734
0.000496938
0.000473543
0.000517308
0.000417217
0.000454445
0.000473884
0.000437866
0.000554928
0.00039919
0.000441885
0.000453687
0.000512149
0.000419899
0.000454434
0.000433762
0.00036043
0.000359666
0.000358166
0.000355597
0.00036026
0.000360207
0.000358782
0.000361734
0.00035853
0.000359022
0.000358441
0.000360955
0.000359299
0.00036068
0.000362577
0.000360686
0.000359137
0.000359608
0.000359989
0.000359782
0.00035957
0.000360189
0.000361381
0.000358825
0.000358954
0.000359715
0.00036021
0.000360284
0.000358867
0.000360051
0.000929177
0.000930198
0.000938438
0.000909691
0.000916784
0.000935952
0.000939683
0.000925935
0.000931574
0.000927034
0.000899067
0.000935855
0.000923271
0.000347434
0.00037696
0.000397999
0.000382846
0.000411249
0.000374947
0.000373025
0.000383713
0.000387348
0.000377016
0.000381415
0.0002593
0.00034297
0.000380334
0.0003929
0.000332872
0.000446214
0.000105763
0.000489396
2.26235e-07
0.000344136
0.000358276
0.000359145
0.000358056
0.000358524
0.00036002
0.000359286
0.00036177
0.000359516
0.000348592
0.000348166
0.000360895
0.000368042
0.000356762
0.000362681
0.00034848
0.000351168
0.000360426
0.000357551
0.000359878
0.00036158
0.000360506
0.000360445
0.000360426
0.000360675
0.000359137
0.000358938
0.000360673
0.000358855
0.00035913
0.000361473
0.0003591
0.000359129
0.000360027
0.000360202
0.000358808
0.000360223
0.000361698
0.000358853
0.000359945
0.000358735
0.000359281
0.000358752
0.000360191
0.000360045
0.000360002
0.000357673
0.000360823
0.000361035
0.000356293
0.000358762
0.0005116
0.000493358
0.000514554
0.000530033
0.000511126
0.000487569
0.000463824
0.000578701
0.000491792
0.000656563
0.000506221
0.000702032
0.000664107
0.000562221
0.000484269
0.000508928
0.000481915
0.000417659
0.000441563
0.000413651
0.000360837
0.00036949
0.000455212
0.000398243
0.000363086
0.000360281
0.000414488
0.000419045
0.000366419
0.000363044
0.000358046
0.000366711
0.000373451
0.00619602
0.00547806