/*--------------------------------*- C++ -*----------------------------------*\
  =========                 |
  \\      /  F ield         | OpenFOAM: The Open Source CFD Toolbox
   \\    /   O peration     | Website:  https://openfoam.org
    \\  /    A nd           | Version:  10
     \\/     M anipulation  |
\*---------------------------------------------------------------------------*/
FoamFile
{
    format      ascii;
    class       volScalarField;
    location    "1";
    object      omega;
}
// * * * * * * * * * * * * * * * * * * * * * * * * * * * * * * * * * * * * * //

dimensions      [0 0 -1 0 0 0 0];

internalField   nonuniform List<scalar> 
75457
(
27.0494
27.1674
23.9252
21.4985
24.1907
28.9391
18.8637
28.9391
17.3673
17.0006
15.8558
17.072
16.8924
16.6996
5.47536
5.47607
5.47616
5.47614
5.47595
5.4754
5.47566
5.4751
5.47698
5.47655
5.47713
5.47789
5.47641
5.4747
5.4745
5.47363
5.47266
5.47323
5.47325
5.47391
5.47351
5.47325
5.47312
5.47527
5.4736
5.47188
5.47179
5.47176
5.47263
5.57595
5.62622
5.493
5.48555
5.5214
4.58745
5.41909
5.11141
4.58815
6.25868
5.04898
5.33762
5.29581
4.11683
4.38811
4.74727
7.24433
5.71723
4.52451
5.95393
5.13379
5.33521
5.53205
4.83266
5.52449
5.77033
8.62599
4.95814
8.62599
5.43662
5.42022
5.11182
5.32231
5.3495
23.9456
22.3118
19.9198
26.9099
24.2595
20.3808
18.3374
21.2972
19.2894
17.5207
19.2982
21.1096
23.0652
18.704
18.8613
22.7408
18.7246
2.33316
5.74668
5.74198
5.24562
13.4334
3.19697
4.90534
3.1697
22.139
20.0071
39.5668
41.1015
20.8275
18.7013
20.3927
7.27744
5.6471
15.7566
18.3915
9.17912
3.94394
4.80875
15.3634
6.45686
4.71436
15.3634
5.1459
5.51214
5.11032
4.21954
4.27203
5.53296
15.3634
3.6158
6.89523
5.41429
5.37699
2.27498
6.1568
3.25973
1.06326
13.3319
5.67402
1.48806
1.62921
23.0304
5.39955
5.06812
4.32246
5.3266
5.12415
4.09268
4.39638
5.75411
15.9498
2.76144
31.7696
4.31457
5.38001
5.18796
7.66726
11.4471
1.0844
27.1663
4.70572
2.45559
22.5306
5.65013
2.53816
5.59203
5.472
5.5426
5.54427
5.54164
5.5974
5.55683
5.53529
5.62241
5.54362
5.54505
5.58873
5.56943
4.7367
4.44635
4.05944
4.16612
0.482349
22.3351
0.828886
11.8927
28.2099
4.36119
1.76512
7.40339
11.2773
28.7297
3.38888
6.75795
6.24364
8.64764
3.61018
18.1315
5.10608
4.78644
4.90929
5.11279
5.12399
5.26344
4.34017
9.0196
3.95357
4.53052
7.34929
2.55295
3.04736
3.27018
3.84918
3.92556
14.4581
16.3228
3.28142
5.1971
14.4581
3.74795
16.3228
14.4581
15.9685
3.32822
8.16608
17.0107
6.02831
6.43636
17.0107
8.41752
3.45742
17.0107
5.21265
5.20382
11.6331
5.209
5.57117
5.16021
2.2529
5.18461
4.33928
4.45959
5.42626
1.17408
15.6177
2.32908
9.96323
5.32075
2.3176
2.29211
4.60124
15.6177
3.39584
15.6177
4.17882
14.0825
0.470718
14.0825
5.76807
5.74159
4.94241
5.90753
5.85204
5.84801
1.83734
6.00396
4.84928
8.40365
6.96628
17.8739
8.40365
10.9243
17.8739
8.66585
2.79092
2.94609
5.30052
3.00891
5.53637
6.89647
10.3594
6.70341
3.26026
10.3594
4.01587
10.3594
3.34252
10.3594
3.72158
4.83421
4.3763
3.63804
4.39588
4.26266
0.265578
17.4917
9.00831
17.9682
9.50579
2.82836
2.67651
17.9682
1.60788
7.81294
21.7116
4.36178
4.49659
1.5953
21.7116
2.06332
4.80653
21.7116
2.60128
5.51119
5.99284
5.03351
10.1397
21.8517
14.8154
11.2218
12.4553
22.387
9.82009
18.362
15.0132
7.50061
22.387
4.51141
4.86265
4.97001
3.54332
7.52924
7.09282
6.62369
3.02752
20.9921
4.87259
4.98353
1.93423
1.97983
20.9921
4.7232
2.92929
20.9921
5.35145
10.8348
18.5105
4.97668
3.16196
6.24293
18.5105
3.90874
5.96447
8.30799
3.80134
3.65583
3.19586
1.00502
3.71855
16.8772
5.1177
2.95372
7.27196
14.1304
7.27196
14.1304
5.18926
5.11716
5.26592
5.08596
5.24647
5.31881
4.17572
4.21636
4.83257
4.0244
14.1229
7.04301
5.57896
4.05198
14.1229
6.23907
9.38023
6.22734
15.9208
15.9208
9.72904
0.340886
4.30993
2.68584
5.35018
5.26927
4.83309
5.88178
5.98011
5.596
5.65929
6.01284
6.0715
5.81273
6.01023
6.05951
6.29881
5.79163
5.77081
5.86925
5.8669
5.65716
5.90392
5.79331
5.80021
5.58124
5.58719
5.54001
5.55195
5.51984
5.58963
5.54616
5.56372
5.58756
5.61766
5.56813
5.54056
5.58695
5.73588
5.74017
5.55568
5.56385
5.64623
5.59974
5.55594
5.55636
5.712
5.71342
5.63501
5.66189
5.64214
5.61655
5.60866
5.55386
5.63161
5.73132
5.61768
5.65191
5.67467
5.5839
5.33981
5.50045
5.51099
5.49206
5.51098
5.47203
5.48364
5.48148
5.48195
5.35566
5.5085
5.4889
5.49649
5.46244
5.49331
5.42332
22.9455
16.9399
18.9266
16.9399
13.7947
14.4357
14.4943
16.06
12.3349
13.584
16.8665
27.3723
21.8847
17.93
13.3954
10.7796
5.47008
5.46721
5.38391
5.3846
5.44885
5.4653
5.47316
5.47149
5.46201
5.4699
5.42999
5.42135
5.37427
5.3793
5.12124
5.34769
5.42236
5.44519
5.54014
5.64653
5.69253
5.60553
5.58803
5.76329
5.79336
5.53072
5.57824
5.76527
5.75338
5.91991
5.76169
5.59121
5.55614
5.52191
5.47891
5.48219
5.47835
5.48533
5.48741
5.47804
5.47839
5.48565
5.48452
5.48244
5.4832
5.48445
5.48459
5.48493
5.4823
5.47952
5.48088
5.65157
5.69277
5.5209
5.53425
5.52845
5.51767
5.68972
5.7527
5.53927
5.59042
5.66242
5.51765
5.52733
5.55396
5.58156
5.53894
5.64993
5.51912
5.65631
5.67835
5.37461
5.60606
5.37043
5.58551
5.62446
5.63792
5.69953
5.6735
5.40169
5.71791
5.69582
5.73985
5.58695
5.77357
5.8089
5.49247
5.49034
5.48128
5.48509
5.48827
5.48253
5.49027
5.48309
5.48084
5.48371
5.48507
5.48315
5.48723
5.48763
5.55927
5.54181
5.56839
5.5478
5.58827
5.57596
5.57615
5.55814
5.54299
5.57241
5.58079
5.57655
5.55732
5.52897
5.53137
5.5744
5.5463
5.55519
5.75263
5.77169
5.7812
5.95456
6.0782
5.78147
5.69676
5.90621
5.85948
5.85977
5.59472
6.02841
5.51641
5.51766
5.52027
5.52203
5.51532
5.52006
5.51168
5.5074
5.53677
5.48925
5.48465
5.48446
5.49385
5.49451
5.48488
5.49513
5.52005
5.54867
5.51096
5.53199
5.61708
5.53302
5.52207
5.6069
5.59372
5.53739
5.52754
5.5447
5.55877
5.53595
5.5426
5.55108
5.48455
5.49884
5.43089
5.4939
5.49346
5.37761
5.3872
5.47247
5.48917
5.49761
5.4933
5.48519
5.48443
5.48661
5.50862
5.39106
5.41036
5.38487
5.47099
5.47204
5.47529
5.47492
5.47913
5.47696
5.47477
5.47568
5.47375
5.47336
5.47547
5.47688
5.47527
5.47317
5.4734
5.47241
5.47211
5.47178
5.47248
5.4718
5.47278
5.47172
5.47256
5.47231
5.47198
5.47167
5.47319
5.4719
5.47214
5.47198
5.47159
5.47154
5.47183
5.52703
5.58187
5.60201
5.4878
5.49375
5.56919
5.51362
5.47064
5.49385
5.65708
5.57949
5.92456
6.06197
6.21075
5.97626
6.07683
6.17365
6.57048
7.57674
5.8595
5.8443
6.23636
6.71199
6.12975
6.66451
6.20419
7.10034
6.50365
6.06026
5.93021
6.0166
5.94539
5.50753
5.49993
5.45776
5.46303
5.48945
5.50116
5.48858
5.46819
5.45025
5.37195
5.32491
5.28152
5.50266
5.32077
5.14131
5.38005
5.28966
5.54183
5.67278
6.02246
6.38059
5.733
5.78754
7.05614
5.72938
5.94673
7.29771
5.98443
5.60479
5.56754
5.59507
5.64008
5.64465
6.1904
6.55541
6.50367
6.13837
5.72652
6.87833
6.35272
6.61022
5.44974
5.44752
5.47188
5.47389
5.47023
5.47126
5.4657
5.46634
5.38475
5.46273
5.47164
5.46215
5.47106
5.46819
5.48185
5.47711
5.4503
5.43023
5.47104
5.44906
5.39838
5.46788
5.47974
5.47826
5.483
5.47804
5.47754
5.48147
5.48152
5.47631
5.47996
5.47939
5.47852
5.47931
5.48172
5.47714
5.47843
5.48381
5.48009
5.47807
5.47671
5.47631
5.54018
5.4213
5.49327
5.4826
5.52785
5.46266
5.48477
5.49281
5.47429
5.47405
5.47774
5.52284
5.52293
5.45702
5.47572
5.4774
5.50346
5.48087
5.49095
5.48592
5.49154
5.48846
5.6369
5.9207
5.50698
5.52776
5.55585
5.59954
5.53296
5.5474
5.55744
5.62035
5.69926
5.6611
5.53676
5.51158
5.50566
5.5756
5.51556
5.51819
5.52818
5.48892
5.50586
5.49024
5.4916
5.48274
5.51016
5.49807
5.50543
5.50792
5.49825
5.53769
5.55936
5.4807
5.48171
5.47796
5.48071
5.4788
5.47676
5.47548
5.47873
5.47707
5.47575
5.45368
5.4655
5.48198
5.39813
5.48481
5.49684
5.43207
5.33916
5.48487
5.4272
5.39944
5.38534
5.41705
5.49508
5.38026
5.38186
5.51297
6.22402
6.60755
6.69729
6.92599
6.38314
6.13705
6.0683
5.84065
5.78915
5.90098
6.98259
6.47273
5.96293
5.97227
6.41865
5.92201
6.27698
6.22089
5.81192
5.88663
5.58015
5.66982
5.60783
5.58863
5.72308
5.82758
6.02718
5.56041
5.59804
5.55503
5.97501
6.01515
5.58032
5.66672
5.75686
6.21679
10.2643
9.58176
9.2584
9.60172
9.11793
8.0971
7.40251
8.60042
9.63693
8.83682
6.82908
7.39767
9.26411
5.60708
5.63624
5.61332
5.50127
5.49889
5.53458
5.61368
5.57971
5.555
5.51063
5.50361
5.53023
5.37608
5.31372
5.37932
5.37546
5.38016
5.37081
5.44201
5.45514
5.42482
5.40541
5.48726
5.48697
5.48515
5.48506
5.48702
5.47083
5.4107
5.48219
5.47873
5.53451
5.51345
5.74765
5.73921
5.68139
5.54617
5.53994
5.56161
5.68737
5.49368
5.49294
5.53186
5.53655
5.5599
5.50069
5.48748
5.49193
5.52859
5.48879
8.78089
9.27364
6.77257
7.34875
7.56886
7.45654
6.19596
5.75141
6.1304
5.76662
5.99723
5.81882
5.9131
5.67661
6.13577
5.4858
5.4536
5.39041
5.43832
5.46992
5.4838
5.47943
5.46983
5.4883
5.48517
5.48708
5.39242
5.44085
5.48268
5.57863
5.47099
5.48375
6.30978
5.07497
6.14897
5.38909
6.30978
4.85368
5.7754
6.12958
6.02454
6.00242
5.88313
6.10269
5.22032
4.6572
4.64025
5.31586
5.28118
5.3377
6.13458
5.00016
5.83413
5.61843
5.6027
5.61051
5.82149
5.77077
5.52848
5.77321
5.88026
5.5942
5.57605
5.60824
5.59071
5.65053
5.74833
6.07194
6.24066
6.12841
6.2211
6.39915
6.63872
7.01789
6.14529
6.9277
6.99269
6.81126
6.84233
7.34515
7.53006
5.9224
6.15921
5.83793
5.90438
5.84964
5.95433
5.67201
5.57619
6.04676
5.70662
5.75565
5.55593
5.69572
5.56071
5.56574
5.56393
5.48059
5.47908
5.48649
5.48678
5.35237
5.3415
5.49907
5.47272
5.5065
5.49394
5.34926
5.42789
5.36788
5.44983
5.41958
5.32184
5.34865
5.31573
5.43023
5.61878
5.89476
5.77607
5.70535
5.67765
5.81208
5.93245
5.9353
5.98665
6.07327
5.56562
5.587
5.71938
5.60988
5.8932
5.76782
5.48563
5.50653
5.49924
5.5036
5.51536
5.51957
5.50289
5.51104
5.44368
5.66359
5.49528
5.4939
5.68816
5.77394
5.49716
5.50054
5.50947
5.50589
5.48548
5.44034
5.43007
5.6452
5.56865
5.62302
5.62625
5.55252
5.51608
5.46427
5.55298
5.47262
5.4739
5.47574
5.4754
5.47497
5.45359
5.5188
5.47335
5.49446
5.47138
5.47678
5.48571
3.67158
2.27404
14.3829
2.27745
10.1705
5.32763
4.89982
14.3829
14.3829
5.27797
6.40181
7.74908
14.3829
4.57183
4.6192
5.25715
5.06796
5.29849
5.28048
5.11115
5.52409
5.12271
5.34004
5.1204
5.21028
7.47373
8.16183
6.85718
8.58634
5.23986
5.0596
5.26262
5.20415
5.31028
3.04548
3.39761
3.30126
5.4804
5.47853
5.47824
5.48009
5.46716
5.47785
5.47979
5.48009
5.48
5.48135
5.49159
5.48546
5.48409
5.48495
5.48132
5.4865
5.7065
5.44306
5.82805
5.66179
7.16432
6.62792
5.36351
5.68791
6.24582
4.3797
4.75741
4.43541
5.30509
5.08888
5.51471
4.86747
5.51471
5.2324
5.50422
5.03795
5.46275
4.36152
8.96858
5.07654
4.88759
5.30332
4.32228
9.89322
5.23172
5.47339
5.22694
5.12745
9.89322
5.05263
4.21651
4.80376
5.78393
1.67232
5.36463
0.678265
16.7548
4.18139
4.94275
19.69
3.29105
3.79527
6.15192
3.72602
7.65064
4.4368
5.26039
6.36358
7.65064
5.25482
5.54895
5.22861
5.4599
5.77044
7.65064
5.88566
5.28717
5.29905
7.01652
6.06861
5.22353
5.343
5.21195
5.34561
5.49
5.44359
5.45337
5.39208
5.37733
5.4965
5.49519
5.48766
5.40101
5.3694
5.48068
5.44673
5.48647
5.3962
5.40649
5.49489
5.25877
5.49382
5.49443
5.51872
5.51287
5.31422
5.0754
5.40639
5.38613
5.54594
5.15662
6.00131
4.83836
10.8651
10.0275
8.73815
8.7329
11.5835
8.57782
7.84545
8.80628
9.42874
9.53111
11.1311
12.3932
7.51019
7.78459
9.18657
9.9029
9.7451
11.5767
9.42798
8.61617
8.20929
9.0295
9.55674
6.59351
9.35448
17.0062
18.8553
13.0636
6.6829
7.89335
8.58141
9.23616
15.4495
13.0636
8.12559
10.049
7.38152
6.83892
8.25484
6.61685
6.24625
6.30014
5.94109
8.9991
11.4197
9.53909
10.8464
6.14445
6.10265
11.0253
8.34618
6.40852
6.96314
10.1984
7.83159
6.85366
11.0254
7.00787
9.71648
5.52647
5.53403
5.35259
5.53296
5.38964
5.49059
5.49845
4.40246
5.03832
5.03339
5.26815
5.42826
5.20021
5.21455
4.45047
5.27964
5.64312
5.61348
5.39322
5.4795
5.88162
6.11755
6.72528
5.13366
5.56449
5.93273
5.94584
6.05108
5.28004
5.50782
6.68687
5.85782
5.80596
6.5504
6.60654
24.4793
22.7779
24.1678
26.0462
30.4173
27.5024
30.3428
43.4358
40.971
36.5768
32.3108
31.7016
44.7111
33.7694
32.5311
31.2383
38.9119
38.685
39.4914
29.3645
4.19765
4.15666
5.18645
3.37976
5.10511
5.00307
5.37543
5.28488
4.20201
5.1459
10.2621
4.06588
5.06234
5.12124
6.34669
6.22551
10.2621
6.0551
10.2621
4.79319
30.6208
37.523
41.4701
55.8871
42.1021
29.7892
24.5731
39.506
47.1082
41.9895
45.3159
35.602
62.5755
41.0633
79.0143
80.9993
55.2787
1.48256
5.87545
1.38357
22.0236
4.72197
4.88845
4.79961
4.69442
28.3961
5.15151
0.74286
13.627
10.8169
10.1038
15.2071
14.5111
12.559
10.2656
8.96238
8.3946
13.9792
15.3613
11.7043
12.321
12.3556
14.2161
10.0998
11.7426
12.1266
11.3322
15.2968
10.0572
9.81217
5.23339
5.30264
5.47549
5.46642
5.26172
5.33932
5.18726
5.42334
5.40684
5.3435
5.47358
5.39637
5.41502
5.47538
5.43021
5.42532
5.3153
5.46407
5.36616
5.26356
5.36736
5.49292
5.43211
5.01032
5.42348
5.49746
5.35035
4.8989
5.47693
5.30832
5.61261
5.48612
5.48199
6.12007
6.01668
5.82122
6.21533
5.94471
5.3266
5.30674
5.47149
6.33066
6.38962
5.46342
5.99219
5.9147
5.88688
5.48382
5.46832
5.44937
5.38621
5.50487
5.49478
5.51037
5.50173
5.34363
5.29171
5.47962
5.50271
5.48293
5.39697
5.35929
5.37581
5.50596
5.54061
5.52783
5.27581
5.35883
4.60815
4.58334
5.10415
4.9062
4.99352
5.48272
4.56935
5.51769
5.61062
5.54795
5.44724
5.43103
21.8032
22.0578
16.7196
18.1805
19.6117
21.9497
25.2603
25.5281
18.6538
19.8624
25.5135
30.0955
24.7558
26.656
23.8034
25.1895
24.0947
8.5655
7.29182
6.84834
7.78011
6.75295
10.9957
16.7527
6.87267
11.3175
10.0093
6.77927
11.3513
12.3909
6.86351
7.49077
12.4263
22.5995
7.60523
5.95465
5.55887
5.15072
5.25482
5.1569
5.48516
5.30623
5.36707
5.26763
5.29612
5.4619
5.42565
5.24321
5.47323
5.45326
5.35966
5.44937
5.48294
5.41659
5.28963
5.39527
5.35313
5.63658
5.53516
5.53543
5.69273
5.55628
5.50687
5.49508
5.49394
5.6257
5.5416
5.60904
5.52008
5.53169
5.52896
5.50245
5.51382
5.15881
5.32281
5.17299
5.06827
4.84053
5.10857
4.48209
3.26266
5.1194
3.38531
7.93344
5.21674
5.19772
6.01019
5.17663
3.95586
5.51766
9.52965
11.872
6.01248
10.4768
12.5316
5.37525
6.10633
5.47384
5.05596
5.22622
5.31587
6.10633
5.2252
5.59019
5.48087
5.38368
4.67221
5.43603
5.18689
5.09135
5.35111
5.40547
5.4391
4.77234
7.95393
8.5918
8.56177
8.10801
9.19157
9.35798
7.40093
7.03444
8.5384
8.22859
8.45883
8.65912
7.55991
7.05737
5.09376
8.04842
8.37394
7.04537
5.09376
6.62128
6.57616
6.547
3.59858
5.31113
5.10843
4.98231
4.91493
4.98505
2.76925
4.20684
4.21918
4.67634
4.97209
4.84171
5.94278
11.7009
11.7009
5.01493
4.63161
5.51119
11.7009
4.67536
5.35704
4.97065
4.61796
3.10865
8.12236
5.2892
5.32909
5.37371
4.88089
4.85253
7.48511
8.12236
4.57247
4.7045
4.82477
5.35565
3.71998
3.98957
4.92694
4.93197
5.13029
5.53135
6.23257
8.74415
3.92297
6.035
4.8644
4.85465
4.95661
4.83648
5.37758
5.45224
5.47554
5.40768
5.42558
5.56654
5.47554
5.20521
5.50024
5.49963
5.42673
5.3857
5.50729
5.50171
5.48799
5.48342
5.51016
5.47314
5.47243
5.47233
5.48464
5.4905
5.48244
5.47239
5.47167
5.47241
5.47341
5.47227
5.45213
5.47285
5.47551
5.475
5.45503
5.47282
5.49523
5.47325
5.45655
5.47704
5.46633
5.47202
5.47255
5.4721
5.47224
5.473
5.47328
5.47305
5.4725
5.47203
5.47291
5.47326
5.47291
5.47213
5.47337
5.4737
5.47368
5.47316
5.47293
8.25183
7.42979
8.36289
7.86737
8.84588
7.52112
10.3467
7.00799
7.33595
9.15713
7.75423
7.62589
7.59196
7.4045
14.3988
9.69006
9.99602
5.29555
5.46916
5.32746
4.90473
4.71362
5.47431
5.32439
5.37338
5.39787
4.93324
5.04072
4.7122
5.49293
5.47573
4.42336
4.42465
5.4776
5.47563
5.47649
5.49622
5.47672
5.53727
5.60959
5.24961
4.61501
5.51986
5.52313
5.48625
5.06254
5.0884
5.08362
4.50808
5.02623
4.83736
8.60536
10.8123
4.50052
10.8123
5.32772
5.18937
5.38868
5.47467
5.47291
5.46807
5.47303
5.4736
5.46476
5.46604
5.46993
5.47219
5.4727
5.4704
5.46966
5.47016
5.47058
5.50379
5.46742
5.50367
5.47279
5.4503
5.47145
5.48337
5.338
5.24113
5.30667
5.20616
5.39042
5.42153
5.38135
5.5118
10.3534
2.97204
19.3013
19.3013
8.50558
19.3013
9.2107
11.0808
13.3082
9.23663
8.89662
10.1908
8.84586
8.62025
8.1486
8.2201
7.93653
8.17352
20.3444
24.2985
25.4617
20.4496
21.3212
21.615
23.6102
19.7155
23.4624
19.3597
5.25269
4.99947
5.46558
4.99947
5.50417
5.4353
5.43125
5.51619
5.45222
5.50456
5.59812
4.61429
5.0287
5.49561
5.46113
5.34316
5.51262
5.17807
5.26201
5.51916
5.41501
5.32233
3.95448
3.49404
5.7645
5.50201
5.167
12.2309
4.74603
5.68522
5.20467
12.2309
9.23541
12.2309
4.13761
5.62505
5.42319
4.50152
4.08518
4.11111
5.57599
5.56061
5.55717
5.59101
5.53132
5.56975
5.55091
5.5409
5.5202
5.53676
5.56362
5.53099
5.55768
5.52702
5.52356
5.64956
5.57333
5.56903
5.53065
6.34749
6.40682
6.43459
6.44839
5.7404
6.11842
6.19755
6.07807
5.99776
5.87872
6.73957
6.5651
6.40154
6.80694
6.35232
6.59205
6.32795
6.60432
29.267
29.9873
24.9877
23.5941
38.7927
31.9863
36.7159
30.9509
28.9996
45.8713
35.6921
37.5328
37.1924
44.0387
58.1643
55.9039
5.57072
5.503
5.50884
5.51713
5.52745
5.5114
5.54727
5.57332
5.50019
5.50263
5.54214
5.52051
5.55471
5.48532
5.48416
5.48335
5.48785
5.47639
5.47777
5.48139
5.48107
5.47688
5.47652
5.47831
5.47617
5.47988
5.47629
5.47611
5.59691
5.77594
5.565
5.69051
5.71166
5.78198
5.57017
5.63709
5.60633
5.54593
5.63543
5.79513
5.5829
5.57253
5.82085
5.95378
7.22611
6.85451
6.78549
6.16576
6.27445
6.61243
6.01751
5.91223
6.18465
6.9882
8.84605
8.85143
7.27272
6.4106
6.36692
6.25404
8.51643
6.78025
6.8299
7.00178
7.01496
7.2269
6.38389
6.37681
7.49887
6.20909
7.60368
5.99109
6.92139
6.03426
6.17748
7.71633
6.45686
7.66553
8.41679
9.61169
10.9688
10.9026
9.1864
10.6934
8.15675
11.5183
11.1267
10.8695
12.6541
10.2414
14.2191
12.367
6.67684
7.26381
6.96174
11.5488
9.05703
12.2751
10.9155
10.9267
8.21574
13.1217
11.1468
9.00776
8.54724
9.87834
11.4209
6.96862
6.77536
6.72793
7.63116
9.3428
5.64078
5.636
5.64314
5.63215
5.7016
5.65879
5.66278
5.67204
5.73529
5.96865
6.43225
5.83659
5.75333
6.24902
5.62178
5.59594
5.80233
5.60748
5.555
5.5542
5.56696
5.62371
5.69781
5.70117
5.56893
5.62732
5.72395
5.8438
6.23918
5.6318
5.82057
5.5293
5.50511
5.50852
5.53139
5.51689
5.51089
5.5588
5.51505
5.50769
5.51271
5.51893
5.5434
5.56447
5.50807
5.52546
5.50769
5.49634
5.524
5.55259
5.49739
5.49886
5.52951
5.50094
5.55613
5.53586
5.68563
5.74424
5.69789
5.63867
5.50024
5.50948
5.53621
5.5123
5.59515
5.59384
5.58197
5.60671
5.59991
5.70136
5.61358
5.58241
5.75992
5.51909
5.65384
5.64805
5.55917
5.47736
5.47769
5.47958
5.47772
5.47776
5.47663
5.47595
5.47663
5.47879
5.47599
5.47948
5.47718
5.47747
5.47711
5.4754
5.47775
5.47398
5.47616
5.47629
5.47424
5.47561
5.4738
5.47356
5.47666
5.47369
5.47381
5.52917
5.54242
5.55521
5.56748
5.51095
5.51949
5.51618
5.66145
5.79542
5.68165
5.70017
5.52292
5.62406
5.52218
5.54085
5.55549
5.61025
5.53637
5.6049
5.65909
5.9106
5.62654
5.58798
5.8988
5.8318
5.57348
5.55211
5.68618
5.83054
5.64748
5.55466
5.4769
5.47868
5.47776
5.4777
5.48488
5.48504
5.49961
5.48416
5.48367
5.47926
5.47995
5.4838
5.48284
5.58084
5.58991
5.70529
5.56841
5.55555
5.64107
5.84814
5.82176
5.73689
5.6847
5.75164
5.6567
5.70441
5.50924
5.48692
5.48798
5.49994
5.50863
5.53706
5.53084
5.55396
5.49064
5.48938
5.50674
5.48945
5.49136
5.49741
5.4968
5.4824
5.47895
5.47398
5.48322
5.48001
5.47811
5.47676
5.47743
5.47747
5.47732
5.47319
5.4736
5.48353
5.47693
5.4771
5.47657
5.48372
5.48297
5.47895
5.47858
5.48057
5.48009
5.47883
5.48029
5.47932
5.4793
5.48286
5.48124
5.4815
5.48268
5.62936
5.65661
5.72505
5.62063
5.66204
5.64142
5.68493
5.58795
5.58669
5.58801
5.58346
5.50294
5.5044
5.49282
5.48519
5.48056
5.48803
5.47975
5.4809
5.48209
5.48165
5.48489
5.48573
5.48379
7.09832
7.3778
7.24094
9.67811
7.2325
6.88377
7.03366
7.05955
7.08958
7.42248
6.11055
6.57815
6.76765
6.3673
7.49715
5.97039
6.42279
6.51779
6.98878
6.25194
6.69566
6.39
5.50057
5.49375
5.50745
5.50214
5.49806
5.49915
5.48445
5.47972
5.48146
5.48433
5.47829
5.50528
5.49038
5.50237
5.51874
5.50165
5.48353
5.49071
5.49408
5.492
5.4893
5.49664
5.49135
5.48272
5.48399
5.49063
5.51125
5.48379
5.48208
5.49394
17.192
15.769
19.8646
13.8425
14.5216
18.492
19.8108
16.5683
18.5376
17.1033
13.8459
18.6611
15.4793
6.01806
6.05541
5.83656
5.91672
5.92144
5.67213
5.62216
5.81071
5.77175
5.78566
5.69703
6.10873
5.97832
5.66026
5.85032
5.92284
6.34189
6.00176
6.49773
6.41228
5.87728
5.47313
5.47202
5.47395
5.47301
5.46967
5.47086
5.47188
5.46568
5.45072
5.46353
5.46429
5.46491
5.46321
5.46237
5.4586
5.45386
5.46744
5.46934
5.48951
5.49602
5.49525
5.49303
5.49437
5.49688
5.48309
5.48172
5.49166
5.48102
5.48574
5.50073
5.48327
5.48487
5.49665
5.49786
5.48131
5.49283
5.51674
5.48136
5.49228
5.48084
5.48623
5.48056
5.49193
5.49282
5.49073
5.48233
5.48044
5.48238
5.4843
5.48469
6.84204
6.4893
6.8879
6.94347
6.93215
6.65696
6.4505
7.31225
8.04302
7.63764
8.84934
7.41434
7.50902
8.29493
6.68559
6.47431
6.22196
5.73547
5.97398
5.81905
5.52706
5.57158
6.13073
5.77487
5.52124
5.51442
5.86065
5.86655
5.53209
5.51609
5.48041
5.54281
5.58715
6.63975
7.95478
9.05107
8.38871
10.8116
14.4794
3.5883
7.79949
4.97045
6.04688
19.3501
32.8942
23.9865
23.9652
11.0799
6.72515
9.5966
21.7374
19.6092
8.3925
5.53124
5.36014
5.76184
5.62418
5.51603
5.56785
5.63764
5.40566
5.22682
5.18795
5.33861
5.21282
5.27961
5.29186
6.12893
5.8407
6.03565
5.99551
5.63466
5.63694
5.95108
5.58053
6.01645
6.11493
6.35399
5.99942
5.57179
5.55637
5.58174
5.60927
5.77451
5.73507
6.65736
6.87593
7.1442
7.46322
7.48075
7.43398
8.07671
6.08706
7.92555
6.95096
6.35671
6.28678
6.3036
6.62515
6.84206
6.03771
7.1735
6.93336
6.12104
6.27651
5.86438
6.0602
5.61779
5.60615
5.64753
5.62054
5.55524
5.56723
5.55722
5.5137
5.53962
5.61404
5.59258
5.52709
5.51299
5.5186
5.51997
5.59024
5.51796
5.53107
5.50554
5.52063
6.28456
6.30418
6.6902
5.61341
6.02746
5.66315
6.67029
5.83212
5.97732
5.571
5.62929
6.01413
5.63027
5.64393
5.88475
9.65047
9.6946
8.99957
10.5578
10.5403
9.48547
8.73109
7.89995
5.49103
5.53573
5.49725
5.49207
5.49373
5.50292
5.50235
5.5198
5.49527
5.48901
5.53024
5.50086
5.40873
5.37873
4.9214
4.72216
5.40262
5.4112
4.88214
4.39724
5.27012
5.14124
7.09963
4.97477
6.22744
7.09963
5.42369
5.46933
5.33067
5.22175
5.49036
5.48677
5.48991
5.48906
5.48634
5.49155
5.49144
5.50095
5.50012
5.49233
5.49515
5.49162
5.49626
5.47418
5.4916
5.49303
5.49465
5.4835
5.47214
5.4721
5.47108
5.47173
5.46943
5.47098
5.47215
5.47185
5.47162
5.47115
5.47242
5.47205
5.47059
5.47181
5.47168
5.4722
5.47181
5.47174
5.47158
5.47172
5.47185
5.47164
15.9341
14.4019
16.1549
18.7491
15.209
18.3261
15.8438
14.0496
17.3156
18.9916
18.4563
17.0588
16.764
15.6552
17.1902
15.0556
10.2178
11.5611
10.2994
10.488
11.006
10.4138
8.62309
9.59763
9.07351
9.4128
7.15307
8.40362
8.53991
9.83546
8.73762
7.11257
8.28357
9.79196
5.48736
5.50711
5.49906
5.50405
5.50527
5.51276
5.50916
5.50176
5.48442
5.48241
5.50763
5.52197
5.5084
5.50024
5.49039
5.49214
5.49797
5.49737
5.49474
5.4951
5.49747
5.49272
5.49352
5.49909
5.50216
5.49897
5.48628
5.49859
5.49546
5.50763
5.49572
5.50172
5.50469
5.49763
5.49967
5.50388
7.50317
7.39644
6.45774
6.26949
5.87646
6.88127
6.4569
6.29713
6.19497
6.57525
5.90766
5.75562
6.10185
6.1551
6.06155
6.04876
5.49222
5.4973
5.5185
5.50593
5.48499
5.50223
5.48488
5.49519
5.4837
5.47817
5.48008
5.48019
5.33732
5.4201
5.49507
5.38827
5.31446
5.48666
5.47389
5.41132
5.40038
5.43509
5.49151
5.47685
5.4508
5.48569
5.46742
5.47823
5.47896
5.48303
5.48844
5.49804
5.502
5.50746
5.49918
5.5046
5.48307
5.49391
5.48258
5.48621
5.4867
5.49339
5.49968
5.49805
5.48783
5.49265
5.49465
5.61601
5.64196
5.55881
5.53326
5.73032
5.64867
5.57793
5.58413
5.67079
5.51925
5.52951
5.52077
5.52221
5.53688
5.5532
5.52728
5.54584
5.5342
5.63181
5.5915
5.48249
5.4852
5.47703
5.47963
5.4792
5.47941
5.47835
5.48131
5.48468
5.49163
5.47883
5.47786
5.50794
5.49706
5.60946
5.59176
5.49843
5.50297
5.52509
5.51216
5.57088
5.5376
5.61764
5.51413
5.51327
5.61399
12.4886
13.2095
18.2043
17.5573
18.4064
18.4768
12.5359
10.4723
15.4801
16.5764
13.0345
16.5506
14.4687
15.3284
5.47715
5.47675
5.47755
5.47447
5.43602
5.4462
5.46129
5.482
5.47715
5.47735
5.47796
5.47602
5.48126
5.47557
5.47459
5.026
5.23123
5.35882
5.86158
5.33309
5.27565
5.27429
5.4037
5.35997
5.44126
5.39459
5.25527
5.4254
5.3996
5.42201
5.47414
5.39117
5.97277
5.98748
5.92325
6.05794
5.84064
5.80196
5.90247
5.98248
5.73978
5.68115
5.99734
5.58485
5.5921
5.68159
5.73135
5.67897
5.59288
5.62585
5.59888
5.60005
5.59479
5.56806
5.50372
5.49766
5.49241
5.49453
5.49453
5.48639
5.49143
5.50303
5.49856
5.50525
5.49171
5.50528
5.4908
5.48198
5.4936
5.51114
5.51917
5.46448
5.46845
5.1093
5.38053
5.31699
5.49524
5.17603
5.48675
5.3731
5.47197
5.23386
5.23505
5.35645
5.20569
5.48697
5.48931
5.48039
5.48046
5.48512
5.49254
5.49302
5.48593
5.48184
5.481
5.48535
5.48554
5.47959
5.48158
5.48476
5.48254
5.48286
5.48413
5.63366
5.70014
5.81557
5.62176
5.54991
5.70375
5.54326
5.55228
5.71601
5.55522
5.55182
5.55213
5.66347
5.5975
5.5363
5.53403
5.55973
5.60359
5.54689
5.59519
7.09488
7.02137
5.79811
6.16719
7.22869
6.6982
6.03648
6.80221
5.76195
5.79507
5.75571
6.79154
5.54716
5.51323
5.52002
5.54529
5.53298
5.51078
5.5856
5.5696
5.52254
5.51415
5.51764
5.51808
5.51119
5.58829
5.54363
5.47658
5.4768
5.47639
5.4758
5.48229
5.48213
5.48184
5.47928
5.48237
5.47718
5.47923
5.47528
5.47535
5.47738
5.47849
5.47619
5.4922
5.49272
5.50606
5.49601
5.49497
5.49659
5.51102
5.53407
5.50633
5.53706
5.51582
5.52801
5.52333
7.29311
6.65426
6.60217
6.35168
6.83296
7.99943
6.29464
6.42879
6.10405
6.34253
6.80885
8.16405
6.52847
10.4427
10.8899
12.0556
10.0258
10.568
10.4743
9.93852
8.78486
9.06598
12.7262
11.3526
12.1809
11.7122
9.044
8.98485
10.879
9.82323
9.2689
9.48853
10.9546
5.58253
5.52598
5.50962
5.52423
5.45565
5.59764
5.5332
5.65905
5.47718
5.22787
5.52211
5.21116
5.29708
5.50847
5.45729
5.64688
5.45826
5.47332
4.92012
4.05417
5.40488
5.44524
5.44228
5.30945
5.46743
5.45871
5.4719
5.36055
5.48331
5.43095
5.4639
5.46349
5.81126
5.74745
5.77068
5.82719
6.01504
5.62981
5.84033
5.97897
5.93715
5.81906
5.80719
5.88892
5.93869
5.45984
5.36604
5.83671
6.93064
6.73271
6.52659
6.58652
21.9644
4.15404
8.52414
4.16582
0.881565
5.54647
5.53767
5.68921
5.76933
5.52404
5.55487
5.5317
5.52246
5.64502
5.59022
5.56186
5.63531
5.51621
5.57006
4.41213
5.21946
6.59259
9.55116
7.73852
9.55116
2.12851
3.92038
3.93756
7.95483
3.1429
5.58468
5.50938
5.28711
5.4002
5.56428
5.5304
5.51836
5.23807
5.22814
5.38184
5.37578
6.9188
6.04029
6.45612
6.62889
6.78677
6.61917
6.18134
6.64046
6.46311
6.32993
6.30318
6.34999
6.33135
6.40082
6.43048
5.62156
5.64293
5.67753
5.5995
5.58396
5.5876
5.67021
5.69507
5.63031
5.62249
5.60318
5.68974
5.59408
5.64876
5.71226
5.66808
5.62098
5.93784
5.70073
5.70644
5.60984
6.97473
6.88838
7.18716
6.81833
6.72196
6.62818
7.61741
7.71205
7.14241
6.62673
6.41667
6.83367
6.64977
7.17135
6.38652
6.908
6.6079
5.50672
5.81238
5.57208
5.58217
5.78646
5.97575
4.77828
6.1184
6.1712
5.52321
5.70364
6.23816
5.884
5.34678
5.58038
5.93489
5.79979
5.8313
5.55521
5.89375
5.92927
6.04726
5.91203
5.87804
5.59293
5.80928
5.93527
5.68249
5.65389
5.82845
5.62945
5.61291
6.06535
5.84975
5.47934
5.4782
5.48565
5.49498
5.48762
5.48759
5.39046
5.48893
5.48633
5.42398
5.42611
5.48077
5.4861
5.44175
5.31182
5.10059
5.21953
5.55866
5.4466
5.25865
5.2574
5.38678
5.2551
5.52502
5.35059
5.47211
5.4721
5.4715
5.47145
5.47164
5.47156
5.47185
5.47067
5.47095
5.47074
5.47133
5.47145
5.47145
5.47128
5.47083
5.35613
5.18064
5.37472
5.53359
5.53084
5.62407
5.55831
5.56157
5.482
5.38124
5.37245
4.86844
4.66672
5.28916
5.62287
5.22561
5.35043
5.2164
6.74869
6.5091
6.92884
6.74228
6.54208
6.56475
6.43824
6.17482
6.41746
6.51203
6.44424
6.27003
6.08252
6.54916
6.04573
6.55453
6.13409
6.31329
6.23595
6.0328
6.09235
5.55399
5.60789
5.62824
5.62241
5.53683
5.66097
5.5899
5.51354
5.64356
5.68588
5.60565
5.50791
5.56889
5.53071
5.51431
5.49006
5.48339
5.45712
5.46601
5.47445
5.4054
5.48452
5.49085
5.30649
5.36822
5.36541
5.12224
5.21012
5.3984
5.41054
5.47571
5.49998
5.48825
5.48846
5.26107
5.45947
5.49424
5.27626
5.24528
5.48038
6.35365
6.13148
6.5266
6.70039
5.69752
6.39702
6.55404
7.01713
7.03324
6.45893
7.01929
6.09772
6.43046
5.72942
6.41595
6.20405
6.91553
5.41868
5.35147
5.34913
5.37298
5.46114
5.49286
5.46476
5.46971
5.44659
5.51452
5.22411
5.51596
5.46151
5.48361
5.51977
44.3189
15.0156
20.8953
10.039
17.8772
35.7707
31.7739
26.2641
12.8954
11.5712
11.8323
23.6453
15.7335
15.0104
27.3485
5.5676
5.57259
5.49583
5.55185
5.5517
5.64187
5.2835
5.35614
5.22419
5.35536
5.2907
5.49342
5.49766
5.49396
5.49618
5.49035
5.49555
5.48939
5.48035
5.49158
5.48401
5.47941
5.66281
5.45616
5.55977
5.50348
5.48201
5.67466
5.6059
15.1221
10.9978
19.3519
33.1291
24.3763
18.8004
16.4717
33.1291
18.332
5.49504
5.49362
5.49474
5.49594
5.4911
5.49459
5.50671
5.54019
5.54267
5.57669
5.56338
5.5151
5.50329
5.51081
5.51217
5.51025
5.53276
5.51361
59.7816
66.9476
81.1554
38.2408
64.7896
75.0821
105.35
101.137
45.0588
89.1228
60.3112
61.1984
85.1129
88.1121
122.34
124.515
212.202
76.5933
92.2392
122.493
204.112
62.2225
65.9148
62.0249
81.1281
63.6631
121.401
46.9994
46.1178
82.067
62.5288
3.93672
3.92696
2.99375
17.0876
4.45657
17.0876
2.37791
4.27068
9.23231
4.16711
6.80577
6.35661
7.92037
6.9405
7.4479
5.99254
6.04004
7.24942
8.19414
7.41363
8.4712
8.07989
6.95023
7.23152
7.43511
14.8125
14.6817
15.2886
13.7517
17.1818
17.2347
14.2767
12.655
16.5044
15.1516
15.218
10.6615
11.7228
10.0515
13.6457
9.24574
14.8072
12.5831
7.98938
24.883
23.3711
32.8909
28.6963
28.0546
26.8536
28.2958
34.6989
37.1314
35.9669
36.8408
41.8284
45.2302
5.76151
5.8906
7.48138
10.4839
5.69061
6.04884
12.3099
6.15151
4.40621
4.44973
7.06772
5.82398
5.44731
6.86992
5.59079
13.9925
16.0496
19.6667
15.4284
18.8933
16.3858
10.3974
22.8805
13.117
22.5092
23.2322
22.4222
28.2451
24.9671
9.39713
8.62526
20.7638
26.5583
28.2131
20.7268
5.54395
5.50343
5.51457
5.48151
5.53264
5.50845
5.50919
5.50459
5.49524
5.52689
5.41417
5.36716
5.50713
5.50236
5.52101
5.52882
5.40627
5.30963
5.49564
5.43983
5.33278
5.50245
5.42958
5.46779
5.42603
5.47926
5.46394
5.47602
5.52606
5.51653
5.48932
5.47796
5.49577
5.49474
5.49041
5.51641
5.50744
5.47758
5.48062
5.53613
5.54357
5.57892
5.60225
5.53212
5.58565
5.56026
5.58101
5.69158
5.74334
5.87433
5.84459
6.26007
5.55152
5.67617
5.72179
5.60258
5.73193
5.6592
9.03397
7.78796
7.41521
7.49975
7.34539
7.49998
7.66163
8.59158
10.0937
10.1117
9.74908
6.16912
9.6131