/*--------------------------------*- C++ -*----------------------------------*\
  =========                 |
  \\      /  F ield         | OpenFOAM: The Open Source CFD Toolbox
   \\    /   O peration     | Website:  https://openfoam.org
    \\  /    A nd           | Version:  10
     \\/     M anipulation  |
\*---------------------------------------------------------------------------*/
FoamFile
{
    format      ascii;
    class       volScalarField;
    location    "1";
    object      p;
}
// * * * * * * * * * * * * * * * * * * * * * * * * * * * * * * * * * * * * * //

dimensions      [0 2 -2 0 0 0 0];

internalField   nonuniform List<scalar> 
75457
(
-51.0863
-44.8973
-39.6065
-36.0193
-26.623
-31.0716
-45.0325
-45.5267
-27.8424
-20.5784
-25.4075
-28.8986
-29.2147
-24.6054
-1.28267
-1.61189
-2.01887
-1.62455
-1.98631
-1.91943
-1.43867
-2.02927
-1.64152
-1.86903
-1.98484
-2.10788
-1.74771
0.407557
0.435537
0.470173
0.36946
0.51211
0.3241
0.271228
0.359271
0.419574
0.392408
0.407982
0.261661
0.205599
0.173292
0.220096
0.314449
-7.00241
-5.5637
-5.74184
-6.11031
-6.82636
-2.57631
-3.29214
-3.49919
-3.05225
-2.83335
-3.04954
-3.51064
-3.52149
-3.18313
-3.42581
-3.03739
-3.17236
-3.02131
-2.87454
28.4448
28.7292
28.489
28.8152
29.0552
29.0526
28.6792
28.7553
29.0279
28.8634
28.4989
28.8699
28.8091
28.5014
28.7379
0.457642
-5.43154
0.207917
-6.75219
-14.9486
4.09746
6.62346
-3.19895
-7.13044
-7.79294
-3.34298
1.59566
-3.15545
1.08955
3.99391
-1.57002
-3.11866
-4.98217
-4.98997
-5.02709
-5.04495
-5.05937
-4.93571
-5.24431
-5.06315
29.3545
29.2446
29.5046
29.5202
29.3867
29.2384
29.1583
29.6081
29.6102
29.2246
29.2353
19.8473
20.5721
23.0145
22.5742
19.9579
21.5798
21.5423
20.9756
21.3714
23.1003
22.8887
23.4362
23.9271
22.7757
22.1477
20.9123
23.386
22.3771
13.0026
12.8855
12.5501
13.2312
12.8985
14.0689
13.8472
13.7722
13.7388
8.59738
8.31952
8.69268
8.26191
7.92594
8.17098
8.22572
7.56539
-4.09112
-4.02676
-3.54712
-3.61266
-4.09088
-3.7388
-3.52877
-2.97175
-1.60056
-1.83696
-2.95983
-2.69123
-2.37765
-2.8218
-1.88075
14.5297
16.0783
16.3527
15.7157
16.1617
12.4933
13.8927
15.413
14.3779
15.4249
12.8121
11.4633
12.1008
-6.32061
-6.83896
-6.54359
-6.73898
-6.37405
-6.80001
-6.17292
-6.79689
-6.90209
-6.98702
-6.8648
-6.7512
-6.6324
-6.86151
-5.50525
-3.68474
-6.17549
-4.02238
-3.53073
-5.60701
9.54373
10.0779
8.74152
9.74258
8.18126
8.80687
11.1315
10.706
10.0931
7.73164
7.61586
-5.41323
-5.33243
-5.5683
-5.56722
-5.63852
-5.50459
-5.29853
-5.47159
-5.18192
-5.66919
-5.57195
-5.36356
-5.61464
-5.39482
7.62573
6.92267
7.18176
5.94932
6.34749
6.64562
6.36838
7.42514
7.06416
6.63217
6.05468
5.67631
7.29761
5.99832
-5.15746
-5.18719
-4.80555
-4.73605
-4.96086
-4.92218
-5.08617
-4.85907
-5.31547
-4.8405
-4.92792
-4.61152
-4.9444
-5.29729
-5.13104
-4.90891
-4.94472
-10.9967
-10.6937
-10.7818
-9.87032
-11.3718
-9.82535
-10.9822
-10.5376
-9.82521
-11.1367
-9.98697
-10.3324
-1.82909
-1.76006
-2.32277
-2.39237
-1.13216
0.30128
-0.146159
-0.235675
0.326876
-0.152298
-1.16146
-1.04209
-0.25423
2.0716
2.0982
2.00086
2.46991
2.36565
2.46275
2.45901
2.6607
2.51504
2.27828
2.25439
2.2343
2.67314
2.34908
2.504
0.113913
0.169975
-0.0908186
0.00573544
-0.0732892
0.403829
0.141975
0.264402
0.367132
-0.0770973
0.129433
0.33986
0.212433
0.626512
0.655199
0.64169
0.567688
0.258746
0.400503
0.384097
-0.0338417
0.142662
0.401496
-0.831642
6.97224
3.31221
1.19609
-0.873741
-1.23473
4.48304
-0.997427
-1.33079
2.28348
-2.61832
-2.65448
-2.47327
-2.39728
-2.59975
-2.70708
-2.68718
-2.07522
-2.49072
-2.48153
-2.40376
-2.00432
-2.2772
-2.57149
-2.18048
-2.49952
-2.39049
8.98658
8.28027
8.29047
7.19115
3.60358
5.22154
4.59997
6.68278
7.17633
8.33055
5.85253
-0.553439
-1.21262
-1.6445
-1.62909
-1.3386
-1.51992
-1.05846
-1.35039
-1.71
-1.10811
-1.33284
-0.00621766
0.0244152
-0.0284797
-0.0219211
-0.0498273
-0.0649009
-0.0209022
0.0566729
-0.00636922
0.000836138
-0.101501
-0.092272
-0.0585175
-0.0722809
-0.0301488
-4.2099
-1.30105
-5.56287
-3.81209
-3.76279
-4.45715
-4.79584
-4.69764
-4.88883
-4.82915
-4.65172
-5.11452
47.6995
52.4414
41.1918
43.8241
46.5822
48.5113
48.229
51.0517
43.6828
47.9987
46.3044
47.253
43.3856
47.7619
42.1768
43.5795
45.4979
40.6085
32.6185
32.1173
32.7932
33.5385
34.3206
35.2742
32.8205
33.4992
35.9012
39.1495
35.9261
36.2297
38.0246
24.129
21.4466
19.1093
20.6729
24.9016
21.7291
20.377
21.8055
21.4854
19.6464
26.5768
26.6029
20.1958
21.6799
19.1075
24.9245
27.0397
27.1823
23.3434
23.3639
23.9046
25.172
-7.41553
-7.85987
-8.29259
-7.99566
-8.08355
-7.3536
-7.65322
-7.67907
-7.6311
-7.44399
-8.19304
-7.70704
-7.92825
-7.59975
-8.14364
-7.67221
-39.4572
-45.344
-26.1821
-30.437
-22.2864
-31.4724
-31.0477
-29.3271
-23.4751
-27.3412
-42.0504
-35.4989
-29.4294
-37.1387
-25.5244
-27.2073
4.27888
4.16099
4.2154
4.85213
5.05739
5.66366
3.8792
3.60674
5.0918
5.16119
5.73595
5.35335
5.32851
5.15434
4.86088
4.26743
3.75573
4.38708
31.7573
35.9015
34.5675
31.0331
32.3919
35.1805
38.5767
37.5289
32.7964
38.5497
40.2871
38.567
34.8172
31.5131
32.2841
33.1771
24.8144
24.212
24.6893
24.4852
23.7075
25.3381
25.8916
25.3068
24.7264
25.614
25.0841
24.3046
25.1029
23.6522
24.2842
25.7172
26.1573
12.1858
11.9495
11.6827
12.0702
12.1163
12.2662
12.3638
12.25
12.292
12.1161
11.8732
12.1175
12.5202
12.3298
12.3791
11.7089
11.7649
0.821169
-0.561843
-1.96268
-0.983384
-0.70965
0.605071
0.359136
0.632544
-1.5156
-1.47574
-2.78672
-2.34839
-0.363954
-1.17812
-3.1622
-1.61017
-0.0426334
-1.69114
-0.736817
-0.906445
-0.857911
-0.882537
-0.42873
-0.642655
-0.594955
-0.692272
-0.467335
-0.660683
-0.693778
-0.433551
-0.415028
-0.308103
-3.17647
-2.7232
-4.58172
-4.84081
-5.08503
-5.26504
-3.63422
-2.77839
-2.80967
-4.98434
-4.68928
-4.08718
-2.99397
-2.95786
-3.08935
-3.58329
-3.90609
-4.0476
19.642
15.5579
16.3875
23.051
19.437
13.6608
16.4969
16.8455
13.3127
21.6044
16.7723
13.9454
-6.0134
-5.29772
-5.16972
-4.37368
-4.51635
-6.21382
-2.48764
-3.32018
-6.12318
-4.41335
-4.65651
-3.81836
-3.67598
-5.51993
-4.44606
-4.93362
-1.54928
-1.92188
-1.18176
-1.2213
-1.93778
-2.14829
-0.378293
0.5689
-0.365073
-0.983322
-0.458656
-2.19595
-1.51407
-0.454309
-0.176797
-1.519
6.72789
6.19184
5.61455
8.0408
8.67424
6.84782
7.4008
5.29907
6.44778
6.78402
7.92376
7.55216
8.08044
8.53262
8.16455
6.02956
6.10351
7.07769
5.83379
-0.522934
-0.41077
-0.506308
-0.670984
-0.609135
-0.475849
-0.84881
-0.894169
-0.535661
-0.802332
-0.545383
-0.954709
-0.692831
-0.588457
0.265041
0.173366
0.0528018
0.128834
0.0170501
0.0698339
-0.0274305
0.0159928
0.0415097
-0.0842011
-0.113086
0.0644407
-0.0381462
-0.0684065
0.043861
-0.0959518
-0.0113195
-0.0251126
1.01497
-0.136625
1.70455
2.43229
2.39413
-0.787246
1.01649
1.5688
1.73696
1.8703
0.291798
-3.92249
-4.23297
-5.86165
-6.39966
-8.61945
-9.87187
-8.28581
-12.2803
-3.45247
-3.60631
-7.24623
-10.4156
-10.1976
-9.59722
-10.8359
-10.882
-9.67157
-5.72921
-6.2483
-7.48132
-5.12426
-7.21938
-7.36981
-6.33617
-6.77345
-6.37997
-7.43957
-7.22868
-6.70144
-6.33493
-6.52347
-7.05967
-6.68067
-6.97959
-6.1736
-6.64441
-6.91633
-6.20559
-7.98966
-6.93228
-9.89143
-14.872
-8.25272
-7.76515
-13.2454
-15.7621
-9.59001
-13.5575
-11.9311
1.45344
1.55633
1.77089
2.59522
3.15018
3.49651
4.65203
4.24286
3.39818
2.41915
4.41293
2.81853
4.82112
-0.974257
-0.88762
-0.89766
-0.972471
-0.906241
-0.748266
-0.842688
-0.743249
-1.04753
-1.04508
-0.73701
-0.753902
-0.962448
-0.638165
-0.939629
-0.850126
-0.69768
-0.843812
-0.711624
-0.875253
-0.93002
-0.703334
-3.28542
-3.28986
-3.35704
-3.31597
-3.10404
-2.29584
-2.8366
-2.63246
-2.57641
-2.02845
-2.17954
-2.38131
-2.55092
-2.45607
-2.32356
-2.50319
-2.28655
-2.07279
-2.5157
-2.18421
-4.19952
-4.24493
-4.85926
-4.96586
-3.82379
-3.92965
-5.28159
-4.86424
-4.41948
-3.46495
-3.73688
-3.63909
-3.42498
-3.8971
-3.97181
-4.39945
-3.38209
-3.48671
-4.11496
-4.56563
-3.47662
-3.63252
-3.52006
-5.0635
-3.87585
-5.0686
-3.59769
-4.93431
-2.98945
-2.68582
-2.48302
-3.0535
-4.88876
-5.43857
-5.31534
-3.75681
-3.10657
-4.37934
-4.83917
-1.30737
-1.54455
-2.39558
-1.53735
-2.15361
-3.86868
-2.93578
-2.2425
-2.0571
-1.93422
-3.30595
-3.28885
-4.98772
-2.73099
20.4288
21.0229
21.8988
20.7955
21.5781
20.5523
21.4983
20.3838
20.8525
21.7768
-7.12997
-7.07895
-6.39299
-6.37991
-7.40491
-7.16797
-6.49705
-6.69039
-7.10433
-6.19634
-6.79706
-6.35201
-6.2758
-7.12659
-6.36028
-6.76528
-7.23266
-9.9578
-9.62302
-10.4848
-10.1226
-10.6016
-11.0077
-9.18618
-9.03231
-9.62338
-9.46201
-10.5309
-11.0922
-8.81273
-9.77045
-8.98675
-10.1346
-10.2717
-11.127
-9.72715
-10.1496
11.4441
11.973
12.6097
12.048
11.541
12.757
8.85958
10.4149
10.8029
10.2958
9.57562
12.0994
11.4992
11.9522
11.0725
10.7268
3.60239
5.76996
10.9066
7.8942
6.6394
13.6592
2.81072
2.6614
7.46923
11.3024
8.37542
8.26267
5.16039
-10.4917
-11.3634
-9.50587
-8.53057
-8.40789
-9.38991
-9.59431
-10.1155
-8.50889
-7.68719
-7.9134
-8.53893
11.9586
11.2425
10.9296
10.9756
10.9627
9.94212
9.43531
9.01726
9.17977
9.57645
9.53579
8.85093
10.0616
9.50791
10.8846
10.9838
9.55639
10.243
10.001
-7.48375
-7.626
-9.73258
-9.68253
-9.58764
-6.90415
-6.65141
-8.61068
-8.20533
-6.81872
-6.57576
-8.81318
-8.30312
-8.87031
-6.68618
-7.9093
-6.92008
-8.59875
-7.22729
-2.10886
-6.65882
-2.9502
0.431419
-3.67563
-5.36737
-2.4695
0.405176
-0.363049
-4.89164
-4.49085
-2.67283
-2.78735
-1.59351
-5.11538
-6.30215
19.2509
19.7059
18.8846
18.8072
19.5696
20.5344
20.702
19.7102
19.5302
20.2894
20.551
19.5965
20.6994
21.099
21.7843
21.2374
9.19063
12.1589
11.1015
14.9465
4.04425
3.21081
10.1642
10.8992
1.4105
1.02343
4.41818
6.57905
10.7856
2.28533
1.7539
9.53128
2.11245
4.15161
2.9626
5.23083
55.4439
49.6092
45.3238
45.0162
53.939
55.2377
48.8531
53.5989
47.8536
49.814
47.4302
47.8368
44.745
44.6109
50.2214
21.2745
19.584
25.6039
25.4338
23.4043
20.569
26.8532
22.6384
26.7576
30.0655
27.8222
29.5854
31.6178
28.5213
-11.6134
-12.0686
-12.11
-12.709
-10.6875
-10.7938
-9.16956
-7.92914
-10.3302
-10.3067
-8.25781
-7.85744
-11.2356
-9.21383
-8.55941
-9.40452
-2.71134
-2.49408
-2.49678
-2.56528
-2.47779
-2.69498
-2.54724
-2.68462
-2.7671
-2.34631
-2.37367
-2.33638
-2.6506
-2.84419
-2.35392
-2.67077
-2.61369
-2.77265
-2.65146
-9.37071
-9.70747
-10.0468
-9.95283
-10.0523
-11.0761
-9.58926
-10.0599
-10.0703
-9.05818
-9.05709
-9.51874
-9.07713
-9.05336
-10.3613
-10.7249
-7.70381
-8.18276
-8.18127
-8.09011
-7.1133
-7.39764
-8.29583
-7.78814
-7.34836
28.0388
27.2531
27.2881
27.7528
27.8919
27.4968
27.2734
27.3326
28.0235
27.792
27.8761
27.6119
27.7553
27.5366
27.8505
27.8983
27.8712
27.6639
27.3226
27.9737
-3.61848
-4.3063
-3.68387
-4.0228
-3.52217
-3.48369
-3.51355
-4.15375
-3.34475
-3.42077
-3.63273
-3.82786
-2.14309
-2.09889
-1.8659
-1.73412
-1.72537
-2.11212
-2.10182
-2.1513
-2.01906
-1.77208
-1.78479
-1.90704
-2.01543
-1.71395
-1.77127
-1.90025
-1.86261
-1.87863
-0.987132
-0.950457
-1.08653
-0.910071
-0.944611
-1.11977
-1.13371
-1.33731
-1.30415
-0.919238
-1.1315
-0.963451
-1.27851
-1.26372
-1.00478
-0.878127
-1.35601
-1.18428
-0.916002
-0.309516
-0.275097
-0.34426
-0.0269316
-0.0691406
0.0822577
-0.0456413
-0.256706
-0.01929
-0.0222614
0.0262856
0.286947
0.240882
0.0292909
-0.147822
-0.0786677
-5.54659
-5.13359
-6.43966
-6.06427
-4.28034
-3.80019
-4.9548
-5.92978
-6.42404
-7.28377
-7.1304
-7.29191
-7.5018
-7.4557
-7.60944
-7.35108
-7.61795
-7.56849
-7.57481
-7.68504
-7.74396
-1.51961
-1.34166
-1.36154
-1.3949
-1.42598
-1.5035
-1.53207
-1.50896
-1.60492
-1.44257
-1.725
-1.68897
-1.63848
-1.70563
-1.64922
-1.6506
28.0957
28.1316
28.1216
27.8449
27.439
27.3181
27.0408
26.9926
27.2579
27.7311
-2.0633
-2.08857
-1.9216
-1.86382
-2.15398
-2.1785
-2.09873
-2.07287
-2.62481
-2.32919
-2.58589
-2.39761
-2.46154
-2.54195
-2.70078
-2.65958
-2.66933
-2.30597
-2.63382
-2.89355
-2.64389
-2.72841
-2.75047
-2.68496
-2.843
-2.67644
-2.75665
-2.92292
-2.76132
-2.97619
-2.88017
-2.9457
-2.69532
-2.91255
-2.93888
-2.88574
9.69558
9.29665
8.82149
9.52997
8.08367
7.69971
10.0045
9.49541
8.62666
9.70273
8.88729
8.38888
8.85922
8.86611
28.4071
28.3199
28.1938
28.0387
28.4623
28.0725
27.9011
27.9271
28.2112
28.033
28.222
28.3368
27.9395
27.9092
27.7966
27.8257
28.1762
27.969
28.1432
27.9365
55.4861
55.1517
46.5866
49.168
45.1193
49.2131
35.6715
50.6132
45.1824
43.9506
50.22
41.9163
52.2944
55.5849
50.2866
57.3537
40.9402
49.4457
46.1963
-9.13313
-10.8257
-5.60956
-5.3359
-8.06095
-10.8465
-12.5037
-14.7219
-5.29573
-5.47749
-19.6003
-16.3714
-8.87729
-10.6186
-13.4813
-8.17712
-9.02528
-17.7509
-12.2104
-13.3726
-0.169058
-0.271181
-0.181872
-0.224231
-0.254692
-0.192442
-0.419575
-0.0655702
-0.362778
-0.365609
-0.240883
-0.317652
-0.259596
-0.14836
-0.302847
-0.466634
-0.40449
-0.40024
-0.166245
5.3068
4.29226
-13.4528
-15.8748
-0.467192
1.47568
2.2646
-1.19
-9.60645
-1.75287
-5.12785
-2.06408
-9.08852
-8.38638
-11.7814
-11.3231
30.1273
30.0816
29.9553
30.0281
30.2923
30.3116
30.1919
30.2232
30.0409
29.9054
30.4145
30.2008
30.3542
30.3461
29.9777
29.9123
30.0774
30.245
30.3691
29.9735
2.85143
2.77089
3.21742
3.51479
1.15311
0.751605
0.473432
-0.288711
1.54818
2.74471
2.9225
0.788013
0.437883
-0.177911
-0.634452
-0.591853
1.53445
-0.10892
0.0982961
1.04703
30.343
30.2274
30.3082
30.3497
30.3393
30.3612
30.2867
30.4124
30.4741
30.4837
30.5495
30.2648
30.4258
30.4003
30.5051
30.4891
30.376
-2.56445
-2.44218
-2.5615
-2.7654
-2.67217
-2.47606
-2.34366
-2.58325
-2.69169
-2.69086
-2.38837
-2.20732
28.4212
28.2628
28.7799
28.784
28.54
28.5048
28.1764
28.4034
28.6134
28.7582
28.7889
28.4359
28.2527
28.3919
28.1885
28.4146
28.1733
28.4452
28.4967
28.1732
28.4098
22.4737
22.0628
22.1339
22.5181
22.5788
21.8491
22.2089
23.6414
23.8153
23.6218
22.9626
22.6826
22.3327
22.2636
22.3493
22.9105
22.8413
22.8049
8.21467
8.61787
8.48315
7.82333
8.34125
9.02428
8.53984
8.24182
8.46342
9.44951
8.98613
9.31227
9.12038
8.37491
8.00053
48.1054
43.012
37.1872
38.621
44.9506
43.0371
54.3568
39.8287
46.6733
41.5998
53.9541
53.7589
49.4968
42.7876
3.12379
3.08437
3.3433
3.19363
2.98821
3.18341
3.04076
2.9438
3.26683
3.16563
3.17727
2.79016
2.7394
3.24846
3.16325
3.19329
23.8831
21.8986
23.5254
21.7749
21.3755
21.793
22.0008
22.0813
23.0163
23.2408
25.701
25.1863
24.2268
26.5982
27.1686
24.6037
25.5864
29.5997
29.5532
29.1634
29.262
29.3578
29.4121
29.6278
29.6646
29.125
29.2444
29.5764
29.5985
29.5571
29.4346
29.3944
29.5545
29.3613
-18.3525
-15.5307
-14.799
-20.1207
-15.073
-19.7421
-29.0344
-13.6915
-16.5952
-16.1588
-15.407
-18.8704
-22.2978
-15.3643
-3.44629
-2.72941
0.727602
-1.29249
17.7339
17.5167
18.8047
18.4581
17.8576
16.8919
17.1389
18.486
18.9385
18.5725
18.3717
18.6301
17.1837
16.9331
16.4075
17.9807
16.9921
17.4813
16.6845
17.9435
17.3259
17.1025
0.371697
-0.162838
-0.0050198
0.414658
0.256111
0.0225165
0.301449
0.448825
0.735762
0.0498162
0.734328
0.595189
1.04465
0.925112
0.614247
0.46765
-1.92098
-2.16348
-1.69506
-1.81319
-2.07313
-1.86666
-1.77535
-2.02142
-2.18046
-2.09873
-2.10401
-1.72829
-1.75775
-1.68159
-1.81183
-1.78773
-2.14024
-2.18499
-2.0773
-1.9209
-1.75921
-1.94989
-2.41515
-2.52056
-2.54865
-2.56666
-2.64555
-2.74407
-2.52177
-2.75569
-2.38649
-2.55838
-2.34253
-2.66345
-2.29388
-2.3652
-2.29807
-2.66752
-2.3667
-2.34241
-2.62645
24.9911
21.3063
19.5674
16.6672
21.4158
19.0547
17.6917
22.8887
22.3088
18.6555
20.5217
23.6528
21.9242
26.9041
23.9518
23.487
19.8896
16.9374
19.4005
20.9049
17.7084
20.3489
8.43636
7.33507
6.86626
7.18981
7.57034
8.74695
8.66623
8.08773
7.60704
6.95286
7.2171
7.21522
7.25328
7.8083
7.66733
8.3557
7.65492
7.07578
7.48102
-5.06815
-4.9367
-4.91909
-5.10362
-5.03317
-5.13949
-5.30103
-5.35884
-5.04199
-5.3392
-5.2386
-5.12012
-5.209
-5.08914
-5.21446
-5.17453
-5.19693
2.39859
2.33941
2.11037
2.03656
2.22877
2.01112
1.91811
1.96768
2.28123
1.79534
2.20579
1.94606
2.01648
2.03029
-0.20169
-0.307187
-0.430761
-0.405642
-1.28999
-1.38655
-0.193907
-0.97815
-1.62384
-2.0897
-2.05966
-0.788915
-0.83455
-1.60553
-1.79032
-0.547029
-0.780864
0.0109159
-0.00360184
-0.0192991
0.00423985
-0.00935081
-0.0126219
-0.0154615
-0.000365616
-0.00105026
0.00560107
-0.0220017
-0.0233704
-0.048707
-0.0523802
-0.0118291
-0.0221479
-0.0534196
-0.037308
-0.0349608
-0.0654433
-0.0297527
-0.0197376
0.0652529
0.0779054
0.0308249
0.00620432
0.0979087
0.0177512
0.00971902
0.153831
0.13596
-0.0109799
0.0431084
0.0798594
0.0824625
0.109769
0.0750392
0.0917098
0.0729379
0.00791638
-11.171
-15.5972
-19.2813
-23.0924
-23.1575
-25.2502
-14.9385
-18.1751
-20.2895
-7.88468
-13.3349
-15.3373
-22.8649
-20.6778
-19.3816
-18.937
-15.4348
3.02784
2.91686
2.61441
3.64231
3.03843
2.39009
2.16451
3.70185
3.36886
2.70814
-5.1278
-4.91664
-5.0568
-5.30912
-4.00515
-3.96468
-5.28985
-5.36653
-4.98404
-5.06182
-4.30721
-4.00629
-4.29572
-4.52744
-4.66292
-5.0372
-4.49678
-4.70231
-2.19482
-2.36922
-2.39763
-2.4613
-2.14363
-2.1584
-2.52416
-2.15086
-1.64611
-1.83148
-2.29393
-2.024
-1.95698
0.0469102
0.0582769
0.0321373
0.028905
0.0546584
0.171382
0.15874
0.0793733
0.180975
0.169794
0.209899
0.216114
0.0736663
0.195914
-3.83151
-3.76487
-4.22322
-4.21001
-3.63005
-4.4406
-4.7299
-3.74284
-3.65831
-4.30864
-3.99169
-4.30415
-4.40885
-4.12851
-4.52787
-31.3725
-28.8983
-26.8318
-29.4706
-26.489
-23.0839
-36.9322
-38.5965
-37.4296
-35.5544
-37.6821
-40.9043
-28.7962
-29.5713
-32.2199
-31.0131
-30.9292
-38.647
29.2154
29.2119
29.4697
28.8199
28.934
28.9018
29.0087
28.8287
29.1509
29.1259
-4.95865
-5.09514
-5.16248
-5.34906
-4.92461
-5.17722
-4.8398
-4.89776
-4.83278
-4.87862
-4.90281
-5.21767
-5.4131
-5.12458
-5.19132
-5.0023
-5.07488
-5.17606
-5.19972
-5.33987
-5.46467
-5.19322
2.08487
2.0586
2.15149
2.11245
1.84739
2.2459
1.90714
1.56333
1.81835
2.13865
1.52628
1.80959
1.74681
1.73399
1.61569
1.67885
1.71058
1.69127
30.9722
31.913
33.1575
31.8816
30.4923
32.9086
31.1439
32.0615
28.4832
30.2854
31.8278
29.0789
29.4076
28.1897
26.9614
29.9674
27.8427
26.7208
27.7714
41.9376
40.2706
37.6664
35.6479
42.3956
45.1235
44.9041
45.9188
53.9883
51.468
46.2454
50.8213
39.757
41.2529
54.1591
56.724
48.5312
53.519
30.21
30.3201
30.3756
30.1929
30.2947
30.1902
30.3618
30.3104
30.162
30.2891
30.1057
30.138
30.3579
30.2939
30.2983
30.3586
30.222
26.0652
25.6482
27.9236
29.0302
30.87
28.9354
29.072
25.3944
24.7845
29.2529
27.2643
28.748
25.7362
27.7485
25.6257
25.3524
26.5195
27.0436
26.0336
26.6455
27.6831
27.5036
26.8664
26.1737
27.7258
28.072
27.5986
22.9709
22.5415
24.7772
26.1314
14.3967
13.4696
23.4237
23.2893
14.1977
16.498
18.8011
18.9284
20.4912
18.0038
15.7689
13.5953
28.1782
27.3771
27.709
28.2289
27.4514
28.7509
28.3597
27.5797
27.6057
30.3417
29.9242
29.6007
29.0692
28.0027
29.1147
28.5671
29.5689
28.9745
28.355
29.8513
13.947
17.5327
11.3498
10.1529
11.5384
10.9964
19.6674
10.4444
13.6686
12.5047
10.1347
14.4205
13.1139
12.8316
15.7438
18.2847
17.3061
18.6029
14.7181
14.3744
19.4356
17.109
20.9203
17.3497
20.4627
18.7357
19.3094
19.5747
16.8192
18.3798
17.5318
19.1378
17.4532
29.4165
29.4782
29.2757
29.1906
29.867
29.8403
29.3587
29.239
30.0275
30.0288
29.4656
29.7295
29.9765
29.9445
29.8496
-6.68851
-6.44861
-7.15707
-7.91393
-8.47208
-6.20586
-5.82296
-7.72177
-8.81292
31.7892
30.9442
29.9396
29.9117
30.6026
30.011
32.1828
29.6807
33.3684
31.9171
29.7739
31.5424
32.1737
32.5905
33.0371
28.8962
29.1632
30.9119
33.0879
31.782
29.3813
30.2243
6.46332
7.16226
6.5867
4.87686
5.9718
6.81339
3.82715
5.39828
5.43853
4.02089
4.47983
2.82075
3.37263
3.13047
2.64691
3.56452
4.44973
5.66505
2.0414
4.81394
28.4496
26.8501
31.4484
27.0794
28.8869
35.4638
32.7909
28.986
32.6716
28.2034
30.5933
36.3319
34.1003
34.8671
38.3431
31.6951
31.1051
29.3814
33.8861
27.8676
31.08
28.8499
32.5821
37.0134
37.889
35.9522
0.81348
0.569314
1.55149
1.10129
0.909626
1.10808
0.282689
0.473892
1.18433
1.08435
1.29848
1.04822
1.5174
0.524014
0.649943
1.51332
1.11899
0.988733
0.304028
0.80534
0.672792
1.03985
1.36268
1.57087
1.22285
1.38779
3.35956
4.36561
4.72908
5.55019
3.32251
3.14757
3.34101
8.50542
6.6379
8.96325
7.33716
4.63058
6.60884
3.91668
3.73309
3.82126
5.22911
4.52145
12.0871
11.6416
8.55173
10.2429
9.07246
7.26983
3.9747
8.50249
8.93097
6.38411
2.02066
5.46413
6.97786
25.8126
26.5557
26.8713
25.5966
27.1675
26.9531
27.3233
26.5489
26.6519
25.7098
25.884
27.6373
27.0465
-10.01
-10.4493
-11.8873
-10.9134
-10.5221
-13.0289
-14.8074
-13.2248
-15.9964
-11.9979
-11.8985
-11.504
-13.5672
-8.30491
-5.98261
-5.56247
-6.16199
-6.24817
-7.56366
-7.54849
-7.42051
-5.32808
-5.51338
-6.32644
-5.25241
-4.7046
-4.43325
-4.90077
-2.17011
-1.81617
-1.40882
-1.32271
-0.516864
-1.6115
-0.956807
-1.28516
-0.534667
-0.771448
-0.339327
-0.777667
-0.476553
-0.950977
-0.0965215
-0.211426
-6.01893
-5.7647
-5.94057
-5.7797
-5.77413
-5.59313
-5.80886
-6.25394
-5.85191
-5.5205
-5.91247
-6.13005
-5.95652
-6.35505
1.70125
0.955029
-0.717662
1.6261
-0.742705
-0.631264
-0.607736
1.14812
0.942068
0.277674
0.864509
23.6708
25.139
24.2587
25.2558
24.5425
25.397
24.556
23.8806
24.9451
24.096
25.4532
23.3918
24.8293
33.2563
36.1769
38.4878
46.9067
44.6519
33.2872
50.1168
49.4211
36.7773
42.2403
34.9153
36.9804
45.2789
49.0596
51.846
40.1625
42.0372
39.0396
48.4887
46.4113
44.7336
41.7162
33.7037
33.7913
33.5283
32.2663
32.0945
30.9552
31.3641
31.6071
31.0643
30.0651
30.1267
20.8873
20.2677
20.04
19.6646
21.9306
21.4229
19.9617
21.2619
20.3508
19.5238
18.8704
19.0891
20.6669
21.9565
22.1718
19.5383
19.0665
21.1587
18.6093
31.669
31.9441
31.8337
31.8453
32.6044
32.3971
32.1772
32.0159
32.0125
32.4023
33.1487
32.8659
33.2792
-8.63524
-4.35517
-1.57116
-5.13294
-4.13958
1.42691
1.01566
0.51311
2.00101
-1.96468
0.017522
-9.04073
-12.2952
-2.15002
0.179408
-5.78061
-3.52457
-12.0681
-6.87642
-12.8706
-5.88123
-0.831718
-0.27017
-1.10494
-0.625717
-0.39611
-0.76662
0.0173225
-0.348242
-0.470745
-0.844274
-0.492721
-0.179047
-0.864478
-1.06041
-0.805398
-0.368449
-0.0184156
-0.947494
2.37028
3.08878
2.03883
2.9082
2.39785
3.38316
2.51963
2.06616
4.17307
2.48483
3.73115
3.89529
4.95372
5.53616
6.02974
5.58636
2.66198
3.71855
5.88154
3.02032
5.15778
5.20007
4.74053
3.53724
5.15688
5.79872
5.86197
-0.600316
-0.626097
-0.819081
-1.0488
-1.03418
0.478896
-2.1851
2.11657
-0.123774
-1.92076
0.0310907
-1.45349
-5.06631
-7.18901
-8.51509
-10.5957
-5.58346
-6.92113
-8.36036
-1.55634
3.64001
3.71202
3.01866
2.73801
2.84643
2.5051
2.17765
2.77718
2.46698
1.75801
2.0472
2.26552
2.39304
1.9564
1.89148
2.99547
2.13499
2.03774
14.8365
12.4959
6.89269
14.9255
-1.42055
-12.2433
14.9546
4.56696
14.4273
8.28491
8.27647
-23.4779
-21.4337
-40.2775
0.736281
-0.582886
-1.89863
-15.8802
-6.09427
2.20829
-14.7325
-13.8751
-14.2292
-12.0105
-12.5278
-11.5147
-11.2652
-10.9746
-12.8942
-12.3724
-10.5584
-11.0644
-11.8297
-10.5767
-6.77746
-5.42953
-3.1971
-6.56396
-3.23601
-3.43259
-4.87626
-7.36048
-5.15809
-3.00774
-5.92042
-4.71749
-1.28981
-1.49308
-1.8056
-1.04717
-2.37482
-2.06417
16.8756
18.6476
21.6745
19.9122
18.5703
21.6957
8.66468
6.7761
12.2014
9.311
19.1667
23.5352
16.417
19.2315
13.5111
10.3554
19.9034
14.8616
17.2545
14.2159
15.2499
15.7815
-0.254907
-1.68691
-1.51637
-0.554353
1.09994
1.66011
0.554524
2.51242
2.6237
0.094011
-1.61745
1.56481
2.43268
3.05909
3.56158
0.0749878
2.16259
1.70009
0.727171
2.13342
14.1586
15.1179
12.0146
11.765
15.0316
12.9254
12.4801
13.3772
13.5803
13.1966
12.2543
12.3943
12.7808
11.861
14.1297
-4.20499
2.93987
-0.0783458
1.97297
-2.01571
-0.479287
2.14326
-4.31975
2.70337
3.78223
1.43699
2.55841
2.1879
2.68835
2.71733
3.73511
1.13075
1.65782
3.16471
1.66002
-4.13601
-3.60083
-2.49769
-2.70629
-3.81599
-3.51553
-3.83936
-2.94633
-3.42879
-2.53822
-2.96254
-2.19424
-3.2801
-2.91898
-3.63982
-2.83408
-2.52031
-3.06098
-4.99139
-4.68409
-5.08723
-4.92346
-4.67463
-5.12163
-5.72443
-7.03707
-6.3676
-5.64035
-5.16407
-6.08848
-6.0958
-6.90791
-6.15834
-5.21742
-5.85579
-6.45246
-0.337886
-0.314379
-0.315983
-0.412069
-0.315933
-0.395739
-0.358368
-0.364674
-0.460923
-0.474021
-0.319478
-0.544317
-0.641502
-0.685112
-0.327268
-0.392756
-0.409776
-0.434935
-0.637062
-0.615597
-0.398458
-0.454344
32.4471
32.0963
32.5573
32.1863
31.6412
32.2873
32.8082
31.7023
31.8237
31.7246
31.1588
30.8539
31.0734
32.0682
31.5795
31.3351
15.712
13.7938
17.9399
17.4136
13.3344
17.4695
24.7447
21.238
22.5568
18.7223
21.5812
22.1489
23.4388
20.6938
16.1576
22.1943
19.7462
15.773
-1.17666
-0.266738
-0.288243
-0.611413
-0.746939
-0.767373
-0.256921
-0.0859122
-0.832249
-0.798642
-1.00936
-0.839171
-1.00298
-1.40632
-0.942318
-1.18306
10.3942
10.857
11.9686
10.6768
9.87546
11.2371
9.80867
11.6495
12.0841
10.4854
11.0897
11.1349
10.8954
11.9778
10.3741
8.8945
10.1562
9.03854
9.45159
10.1742
9.13739
9.03327
7.47947
5.96931
4.27845
4.28794
6.55999
3.15538
12.4288
11.5947
1.92187
6.99283
10.6185
9.62243
3.82993
6.8393
1.77188
1.4829
1.31568
1.1261
1.51127
0.834256
0.962244
0.625863
0.691506
0.94401
0.790483
1.20693
-0.782669
-0.675646
-0.923904
-0.537587
-0.939782
-0.67434
-0.713534
-0.95582
-0.555186
-0.786909
-0.480877
-0.506373
-0.972191
-0.820666
-0.475826
-0.560619
-0.818849
-5.48159
-5.60215
-5.72401
-5.6349
-5.65854
-5.82999
-5.42227
-5.12471
-5.4907
-5.53094
-5.26921
-5.60731
-5.87961
-6.03613
-5.55096
-5.66754
-5.97554
-5.51403
4.00068
3.81352
3.25216
3.47275
3.1948
3.663
3.40591
2.01502
1.5203
2.27525
2.2318
3.40815
2.69155
1.51439
2.37638
3.05567
2.3122
2.4318
1.40135
2.53874
-2.67041
-2.45348
-0.272603
-0.453766
-1.63499
-1.55997
-0.558032
-0.908605
-2.36
-2.04125
-1.23362
-0.95587
14.0751
13.8195
8.18807
11.0069
13.0927
13.7761
13.6275
12.4874
9.49685
12.2156
9.17827
11.7298
11.6734
10.0933
32.787
32.4271
31.325
31.5279
31.5424
31.88
32.5507
32.2698
31.2465
31.4576
31.3318
32.013
31.8388
32.3876
-0.0224602
0.0854713
-0.0129915
-0.0433994
-0.197984
-0.244965
-0.156484
-0.243616
-0.0495784
-0.0880102
-0.273991
-0.294846
-0.171919
-0.117784
-0.199069
6.8834
6.90423
8.68668
8.83901
6.42216
7.59121
7.59133
7.47919
8.6796
8.76555
6.03851
6.38873
6.75135
7.02199
7.56469
6.74719
7.59863
0.209102
1.84227
2.86318
0.447122
-3.76375
-0.397183
2.81355
0.52736
-2.00921
-4.63573
-0.46299
-3.66911
-3.45184
-2.57346
-0.951897
-0.97348
-2.42772
-4.74498
-4.53699
-2.03191
-3.7391
-1.13839
-5.95636
-6.17241
-6.25435
-5.78314
-5.88517
-6.55702
-5.93384
-6.3172
-6.69161
-6.57131
-6.36443
-6.27141
-6.84713
-6.73229
-6.94838
-4.11886
-4.11523
-4.05148
-4.06793
-3.92041
-3.94357
-3.64133
-3.93483
-3.90827
-3.66844
-3.64651
-3.89974
-3.80929
-3.84484
-3.58939
-3.76515
-6.02165
-6.70464
-6.17251
-6.6458
-6.03172
-6.50714
-5.87938
-6.13765
-6.17238
-6.0403
-5.27467
-5.45403
-5.1503
-4.74741
-5.19512
-5.86277
-5.36864
-5.03706
12.408
12.5815
11.6762
11.3406
8.8762
7.05816
13.534
12.9067
6.3618
13.8931
11.5091
10.3354
7.51558
10.2132
12.4693
13.035
11.8614
8.18606
9.50279
8.86244
7.6978
7.94331
9.06379
9.89065
8.85759
11.4798
11.4299
11.9262
9.9564
11.4759
10.435
8.99602
26.6625
26.0777
25.4123
26.3843
27.5922
26.33
27.7913
27.7995
26.4069
25.6982
24.8085
26.3031
25.2235
28.898
27.9148
-1.67993
-1.67768
-1.49421
-1.49613
-1.44818
-1.00936
-1.21466
-1.1192
-1.44828
-1.48733
-1.64854
-1.39015
-1.32747
-0.811305
-1.31232
-1.28262
-3.02074
-2.74671
-1.41883
-2.43384
-0.969317
0.0294512
1.37896
0.237305
-0.627881
-2.93343
1.10652
-1.50423
-3.69119
-28.9339
-22.2779
-20.1387
-14.2245
-28.73
-34.2093
-9.2306
-16.9596
-13.1812
-18.8241
-20.3703
-25.094
-22.6008
33.6759
31.7134
36.0253
34.7754
35.347
36.7103
35.2985
32.537
30.2683
30.6101
33.8568
34.2929
33.0517
25.7339
28.0512
34.6249
34.2858
27.6314
25.9226
28.442
8.23123
8.3125
8.82475
7.47978
8.80586
7.58376
7.19227
7.95134
8.57033
8.72906
7.50334
8.9821
8.57545
7.94028
-0.463796
-0.249685
-0.0967674
-0.295505
-0.119864
-0.456781
-0.434488
-0.378582
-0.309544
-0.390479
-0.381744
-0.436951
-0.463931
-0.0484888
-0.0465533
-0.0411441
-0.0116718
-0.215887
-8.95118
-8.46324
-7.90574
-8.48398
-9.52605
-8.991
-9.16559
-8.416
-8.38983
-9.24421
-8.86496
-9.18136
-9.81204
-9.21897
-8.92632
-9.10383
-8.93378
-9.53647
-9.83123
-8.22595
-1.10265
-0.697179
-0.743511
-0.906029
-0.925817
-6.71265
-6.76645
-7.97967
-8.48111
-7.21962
-7.1041
-6.76319
-6.88303
-8.32521
-7.25378
-7.47786
-7.89031
-7.11375
-7.35465
2.01479
2.19131
1.31056
1.78275
1.43043
1.96284
2.35093
1.70757
1.98256
1.02715
1.50606
12.5674
12.8575
12.9417
12.7549
12.2059
12.2213
12.4903
12.9752
13.3641
13.3205
12.8981
36.9951
38.6818
36.8363
36.064
38.2958
40.7513
42.317
37.8156
38.1989
43.0119
40.6116
46.8317
39.2617
39.1218
39.7257
12.9437
12.2093
9.52535
10.8627
10.1903
11.6061
10.0696
8.53603
8.83988
10.2205
11.4915
10.5632
12.0013
8.87753
9.38975
10.7942
7.09323
7.13221
9.21621
6.72898
5.42797
29.6971
30.8738
28.7751
28.4624
29.8752
28.5773
24.2237
24.5096
22.1764
22.2344
24.2223
23.678
25.4283
27.5198
23.7856
26.6034
28.2233
37.4715
39.6039
40.0641
37.5545
36.7139
38.4093
37.6445
38.3269
39.6102
36.9358
40.5817
37.449
36.4867
43.0318
41.6629
41.5264
38.25
41.2698
42.2443
38.7026
-1.65713
-0.880943
2.87246
1.73578
8.36861
-1.13486
0.439288
5.72837
3.72992
6.22931
11.5486
10.968
5.59005
9.12938
-7.75845
-7.54699
-7.82068
-7.53018
-7.47645
-7.63673
-7.09503
-7.89392
-7.43914
-7.03649
-7.21005
-7.31172
-7.5733
-7.22409
-4.45338
-4.23629
-4.3984
-4.51512
-4.11042
-4.54031
-4.13778
-4.59617
-4.42446
-4.56494
-4.3735
-0.0344607
-0.0216088
-0.0245813
-0.0448294
-0.0576216
-0.0166758
-0.00396539
0.00445996
0.00234969
-0.0190527
-0.0028198
-0.0218814
-0.0221369
-0.0344597
-0.0577008
-3.62484
-3.75501
-3.57854
-3.58548
-3.66286
-3.81705
-3.82703
-3.63256
-3.80236
-4.13105
-4.14105
-4.07204
-4.08516
-3.80523
-3.74752
-3.67426
-3.8501
-3.81348
1.38223
-1.2363
0.845693
-0.793249
1.03527
-0.604131
0.822127
3.15434
1.04717
0.201288
-0.801063
0.956175
-0.30259
-1.09665
0.601046
-0.893957
2.33857
0.721461
2.21728
0.527734
1.03283
38.3838
42.0413
40.4781
42.3141
38.3579
42.6203
43.4403
40.7348
44.9132
46.6231
43.0625
35.0136
35.841
40.1784
35.5956
6.53859
6.69878
5.18347
5.57694
6.81721
5.6557
7.27459
5.92298
5.9184
5.53678
20.7561
20.7164
21.3349
21.3419
19.9694
21.1652
21.6625
21.5549
21.6089
21.5268
19.1822
19.6428
19.462
19.9388
19.6289
7.9994
8.48917
4.8387
5.95368
8.82775
6.913
7.00773
3.93932
4.52893
3.63706
2.64942
5.78137
5.71816
6.61994
3.37446
3.90005
5.14933