/*--------------------------------*- C++ -*----------------------------------*\
  =========                 |
  \\      /  F ield         | OpenFOAM: The Open Source CFD Toolbox
   \\    /   O peration     | Website:  https://openfoam.org
    \\  /    A nd           | Version:  10
     \\/     M anipulation  |
\*---------------------------------------------------------------------------*/
FoamFile
{
    format      ascii;
    class       surfaceScalarField;
    location    "1";
    object      phi;
}
// * * * * * * * * * * * * * * * * * * * * * * * * * * * * * * * * * * * * * //

dimensions      [0 3 -1 0 0 0 0];

internalField   nonuniform List<scalar> 
146459
(
-2.00438
2.66588
-1.22917
0.567665
0.782303
-1.05952
-1.72716
-3.56374
4.71094
1.51868
-1.10055
-1.68089
-2.84594
-0.866706
2.57412
1.13852
-0.704335
-2.1416
1.93351
-2.44102
-0.552005
7.31795
3.10815
-9.03309
-1.393
-2.84848
4.3593
5.80713
-0.840877
-3.49582
0.683939
1.94517
-3.11912
-2.5183
3.66822
1.37502
-21.9046
40.7536
-20.7122
1.86311
-24.1975
17.2504
-14.9575
23.4403
9.178
-14.1118
-18.5065
46.8175
8.23842
-31.6157
-12.2837
-19.7773
7.86349
17.5611
-5.27455
-3.10856
43.9112
20.4675
-16.4903
-1.06794
-24.6734
-29.9181
34.8141
-9.77277
10.5631
-25.4637
-32.8562
6.59315
36.4683
-8.44265
-17.4625
8.97284
5.81491
21.6805
9.95107
20.0189
-2.60943
-27.3605
1.30245
21.3723
-12.7237
14.7954
7.25921
-2.0357
-7.98322
6.89934
15.8793
18.6743
-14.7811
3.36602
-9.49908
20.4348
7.73856
24.2441
-14.7394
27.9555
-37.4602
14.08
2.18093
-8.892
20.7237
-10.5292
-26.2409
16.7152
-10.124
-2.63468
9.85084
-20.7033
20.7102
14.073
-7.76971
15.022
29.6362
2.77712
-11.7031
10.0575
8.03149
-3.47663
-3.45284
0.465932
6.46353
-6.78154
-2.79493
6.09984
6.53883
-5.71008
-4.28159
0.533433
4.11961
1.88578
7.59854
2.76041
-9.82552
-16.0878
-15.6011
17.8226
13.8663
-15.7575
19.3448
-3.87941
0.292022
-4.89818
-0.194224
-10.6651
-13.9456
-1.51226
-0.629941
-10.6979
-4.75918
9.80268
5.65438
-3.47496
15.5824
7.23745
-14.1427
-2.71403
12.9773
-13.3523
-5.68859
-21.7765
3.87895
14.4226
-14.937
-7.03373
2.97065
-15.3736
-3.19815
-7.72723
9.45798
-10.3382
-19.5439
-9.77531
-8.52718
-2.34963
18.3374
-7.46054
-8.31191
-0.830789
0.615523
-11.6718
21.6846
-12.3624
-8.52384
0.631626
-0.419705
9.42561
-0.99869
1.16486
-9.59178
-5.41993
6.3217
3.1257
9.09695
-9.05903
-3.16362
-5.74614
8.87184
11.1661
0.489632
-12.6544
-0.839702
1.60793
8.32873
-0.237397
-11.4463
12.8485
1.27327
-9.84267
-13.9921
1.48052
-12.9562
0.0979135
-1.08968
1.2129
-0.221131
-1.69876
2.35757
-0.5609
0.56894
-0.453826
-1.81387
-0.0349647
0.879784
-1.9345
2.47332
-0.150711
0.515675
0.397449
0.299778
1.03331
0.0513064
0.0533021
-0.565119
0.422976
0.0888404
-0.473977
-1.96282
2.4901
3.62691
-4.55471
2.05168
1.01011
-3.52755
1.7953
2.1297
-0.582528
-2.06524
-1.63669
-0.510581
3.94257
1.4483
0.37579
-0.523889
-0.43443
0.288185
-3.61553
9.14036
5.98518
-11.51
-1.71964
-15.0029
4.8574
11.8652
-14.2043
8.86914
-8.65748
-20.5498
-5.69831
14.2619
-8.56359
-10.9034
12.1895
3.57127
6.99046
-21.2981
5.65018
-9.61122
9.01566
-6.41702
2.46329
-5.06193
-0.615894
5.58602
4.04554
0.137781
-1.26027
-5.29453
7.95844
-1.61457
-6.20609
12.1905
4.96765
-9.19973
6.44632
5.1283
-6.90958
9.37287
0.327656
6.91396
-8.50189
-9.55526
8.26835
13.2404
-8.27273
0.00438425
-6.62786
0.91014
-6.33013
12.0478
-9.06055
-4.61923
7.05191
6.09596
-7.08684
9.99414
-9.00326
0.112406
5.98356
-7.53881
-7.45918
15.9081
-0.273169
-9.33565
0.548272
-6.6033
-4.23174
-10.6592
7.35217
-10.769
1.918
-0.0573473
-8.64651
-2.06511
-7.6637
-1.72929
-4.55265
6.49089
-9.60195
5.48619
-17.1257
10.8936
-0.360729
-0.538759
9.418
10.0325
-13.1928
-0.987456
4.38317
12.801
-9.91399
-7.27016
10.565
0.551855
-6.73373
4.31009
19.0559
6.58126
-12.0648
10.4913
-5.00777
-9.93278
20.8241
6.12189
4.97704
-23.1026
12.0037
4.78824
-10.7311
5.14453
-10.0815
16.4259
6.73415
-14.9961
-8.16388
-5.46199
15.715
6.17286
11.8613
-3.63906
-13.6842
9.22983
-0.441274
-2.05441
6.57797
18.3669
-2.26754
10.6806
-8.85433
10.6916
3.3424
-2.17279
23.3112
-6.04157
-5.93268
-7.25847
-2.0624
15.2536
-12.1134
-8.39441
14.5751
0.105927
-7.3644
-12.1456
0.138177
-1.32392
-22.7814
15.7109
5.96457
-18.2233
10.9348
-7.61067
11.5128
-19.2381
-9.48253
21.1099
11.8503
-26.3131
-4.7753
2.36776
-2.92833
-17.5967
-2.25634
-11.8029
-3.27102
-4.99664
-22.8495
-12.9705
-10.2009
-6.59864
11.5704
-0.86096
-3.23394
-7.47548
-5.35864
0.0929133
4.97482
0.290906
5.53489
-13.3466
2.45305
-9.43533
8.44893
1.07931
8.87063
-12.7711
-1.60522
4.08629
9.08931
-13.4418
4.74112
7.09548
-0.888959
-2.57053
-9.98233
7.33526
-3.2214
11.1639
-3.18225
6.95408
12.6588
1.22821
10.1933
12.9234
0.296743
-5.64864
7.53999
-2.18809
-7.86996
10.4988
-2.33208
1.27443
-14.793
-14.3631
-1.39559
12.8384
2.92031
11.0932
-24.1818
9.6976
15.5661
7.19296
-15.2191
-6.91929
7.94446
14.541
0.273669
1.12366
8.3358
1.03933
10.7085
3.25353
0.040309
16.2399
-9.97127
20.7201
-6.12718
6.53744
10.3613
-10.7716
-9.4
5.89782
-2.625
-19.8159
5.78171
4.63421
-7.29185
-11.6634
25.4927
8.81353
-10.2076
-5.10723
-6.5562
-3.80035
1.22287
-17.0655
19.643
21.4224
-21.786
-3.43675
3.95501
14.1659
3.30141
16.9737
-2.0717
-13.6791
5.18368
19.3011
-7.51111
5.76057
12.5853
-14.3909
15.9866
3.8746
-20.014
0.152829
-1.85078
17.8374
-14.3637
16.1666
-1.18195
21.1549
-14.7893
20.141
-15.5624
0.722207
5.64008
8.89442
-15.2567
4.0363
6.21923
-9.53333
7.48954
6.50629
-9.95952
-2.58975
15.9995
-5.9202
10.5287
-7.47837
0.0584055
6.16083
8.95282
6.84744
-11.2133
8.60982
-4.24395
-2.33212
14.1429
-4.9633
0.160808
6.34548
0.859825
-1.54444
9.81265
6.32163
13.8022
11.4882
9.98052
-4.56968
-16.899
-4.14421
8.62714
7.00522
5.83631
-12.1387
0.962048
17.4253
-6.24863
-6.9732
3.4616
-5.83213
11.6684
-16.7407
-5.19178
12.1866
9.7459
11.0239
-6.96172
-20.8029
15.604
-8.88036
-14.9149
8.19135
1.83924
8.15066
5.61406
-5.57654
18.207
-20.4118
8.44931
6.60054
2.11154
-15.3381
6.62608
5.76779
10.5343
-9.70152
-5.28723
-15.371
5.4175
15.2407
-18.5347
3.23414
10.0133
-4.18806
-5.43264
-8.91395
-12.9372
-6.62183
5.07374
6.22577
-9.18798
10.8415
10.4435
0.220394
-0.12962
1.30708
-4.61111
-5.92547
9.22949
-7.82764
14.5522
-10.4434
9.06642
11.228
-10.4348
-3.66384
6.27969
-9.58931
-1.25222
2.0368
-4.04948
-11.6309
8.18667
7.4937
-9.32531
5.27583
9.01735
-1.46951
7.6866
-15.2344
-0.30796
7.5609
-14.8164
5.78601
6.73091
2.79577
-1.96578
-1.0655
-6.78277
0.851671
6.9966
-8.83561
-1.62139
9.3915
14.0594
-0.0473947
-4.49018
-9.52183
14.0745
-8.85072
-3.99169
-0.359817
-0.0698127
-5.75837
0.14702
5.68116
-8.47501
8.4052
-3.74129
-6.4971
7.21785
3.02055
7.82315
-11.5644
-8.39627
-0.07874
11.4729
0.882692
0.444372
-12.8
-0.170283
11.6432
0.663085
-8.17666
8.31724
0.570503
-8.44337
8.6497
-0.502739
1.17987
-7.16584
0.22761
3.33246
-5.93226
-10.0843
7.25998
-11.9149
14.7392
-9.83153
-0.252726
-4.2547
16.2036
-4.68889
6.82449
-6.99575
-8.76406
8.93532
-3.47455
10.299
5.63169
10.4637
-9.5224
-6.57294
-4.19985
7.6744
-4.85939
-9.81076
-2.79029
1.33901
6.59222
12.7652
-15.7797
-3.57771
-10.6477
12.9852
3.481
-17.8628
-12.5936
-0.844419
-17.6894
8.5768
-0.838152
5.57419
-6.13366
1.39762
-9.17673
8.33858
-8.03105
0.244011
-5.25879
-5.999
-2.03206
-8.34082
10.8124
2.5179
-22.507
3.29768
1.38104
-6.00124
0.00224193
-10.4394
6.95607
-7.25761
3.07961
-10.2714
-2.11243
-5.14518
9.72124
-4.52955
-13.329
8.13734
4.75428
2.36245
2.60451
2.77567
0.450112
-7.75533
-2.23024
5.0059
-5.61337
7.60319
-4.22006
9.56959
-14.7328
2.89348
-2.57374
2.95964
7.21729
7.59914
-0.60329
-7.36554
-3.78482
4.98788
2.23446
-3.00052
-6.57679
7.34286
-0.545434
-2.0374
4.81729
-1.49907
-2.40419
7.29495
-3.39169
-3.74198
4.07635
-1.83344
-6.17237
11.5571
-9.12676
-0.990831
-5.18154
0.689947
5.05306
-8.74353
-3.38892
-3.69698
4.68171
-2.71015
-1.22421
4.68781
-6.70801
-5.59145
5.58132
-16.3762
16.3863
-19.6676
2.76659
11.3096
-2.14955
-9.57566
-7.94243
16.0716
-10.3482
-7.87298
10.2206
-5.41697
11.268
-4.08337
13.342
-3.67726
8.90378
9.59665
-2.30959
-17.6352
4.17967
-14.7506
-0.657419
-0.968135
-7.02233
-17.304
11.3922
-6.21607
6.68887
-11.865
11.7014
-0.966612
-2.05881
6.23849
-15.548
-4.63006
8.04381
8.28762
4.38645
-1.09763
-5.87151
2.58269
-6.49523
-2.77744
13.6591
-7.59285
-4.32067
-5.84293
7.38616
3.64894
6.83787
2.94466
-13.4315
0.994469
4.8373
-2.18282
7.83234
-0.365257
-3.89994
-0.0554731
-1.39947
-5.60343
-0.23949
-6.55872
-13.9196
12.9105
-13.5292
14.5384
2.57146
-3.83135
-12.6598
3.9204
11.649
-20.352
4.78266
6.20495
14.0518
-16.3364
-4.96927
7.54072
13.4952
-6.19946
-1.0908
-0.562641
0.974478
13.0834
-0.0760166
14.1279
11.573
13.5652
6.60369
-6.41738
-13.6634
11.8257
8.25504
-10.6347
4.61974
-0.402435
-2.68978
-3.30571
-7.66786
-4.47906
-8.8454
7.39444
-7.09977
4.32507
-2.56829
12.3282
-11.0216
2.88304
-4.18958
-8.29277
13.6266
6.99433
-6.45564
-5.14284
-13.8747
-3.60259
9.43022
-6.54717
-9.20118
-3.71942
5.82084
-9.75611
-3.92414
-10.2666
-2.16691
-6.47277
0.170817
8.46887
12.3371
-4.98219
-2.50296
-4.85197
-7.80028
2.05575
2.57954
3.16498
-1.6796
8.91644
-7.23684
6.14614
-7.82574
-5.69168
0.687022
17.0008
-11.9962
3.89855
-10.0887
0.498477
-11.5248
-5.18672
17.3986
-9.25915
-4.87581
2.61011
12.1617
-9.63461
-13.4289
10.9018
13.4592
-6.48416
-21.2165
2.32269
1.44358
2.68076
-5.29179
1.16745
3.64028
-4.32712
2.13042
6.55531
-5.82588
-4.95753
4.2281
0.689225
5.38379
0.482294
0.616912
2.75308
0.760913
3.49628
1.27418
-5.13279
-1.43318
-2.91496
-0.137983
-0.446188
-3.73155
5.45095
-1.27321
-1.67306
1.98778
0.95447
0.132579
-6.21984
1.13773
-3.09822
-2.55826
-6.50437
5.33107
-5.55462
1.3233
1.23467
-6.92797
-0.721756
-0.941082
-4.84153
-5.13865
-3.66339
3.95699
-7.77903
-5.15784
5.47654
7.46033
-0.658367
-2.38259
-4.73807
8.41461
-4.04043
-5.03255
-4.45956
4.92724
7.94694
8.52842
-4.09986
-8.46898
-0.356746
4.42561
9.66744
-3.39633
-8.6537
1.5043
3.0053
10.5111
-0.107287
-7.65596
3.63582
-1.11576
-10.6401
-11.4799
6.96785
2.77778
-6.23101
1.57501
5.1145
-7.69358
1.00407
-6.12522
3.82461
3.87562
-14.3524
-0.206168
7.93356
6.62502
-4.99624
-0.828417
-8.52776
8.25331
-1.3031
-3.15933
-3.79089
-5.22667
7.35476
-10.0822
4.64936
-5.07395
-10.0045
2.22741
-3.15643
6.04353
-2.77007
8.82208
8.46692
-4.3762
-5.39381
-2.06961
2.84295
-11.772
3.86444
0.227151
7.68042
-5.34287
-7.25756
9.02794
-1.4054
-6.82787
6.55012
-2.83964
-8.08669
4.06026
0.420262
-4.9752
1.8609
3.34145
-4.62641
-5.69165
2.76472
-8.87145
-13.5568
11.1039
14.0179
-11.565
-2.27681
-16.0715
7.59516
10.7532
-24.3928
8.85016
13.2658
8.27135
-12.486
-11.8569
-9.25368
-6.86779
0.701916
-11.0195
-1.15721
11.4748
-1.05928
10.608
-8.84677
11.6601
-12.4193
-0.300089
-10.4064
8.86337
9.1382
0.823979
-1.63654
-12.7442
-14.8096
14.2605
9.39934
8.64259
-10.5206
14.2549
-11.8485
-0.939845
1.8074
-2.36213
-1.37687
15.9849
-12.8007
0.798335
-3.51228
3.40771
-0.693769
1.18534
-0.387
-2.46924
-0.000724748
-1.38135
3.85132
-1.28391
-9.7816
-3.37785
7.64209
5.51737
-0.327385
-1.23587
-8.21834
4.62555
-3.48378
-2.42567
-1.27455
5.89937
-7.60629
4.66649
-0.438059
-1.28273
-6.65094
0.186912
0.196621
-0.770533
-4.60809
-0.431882
2.45824
-4.52304
-0.987719
7.35525
3.24689
3.80478
7.74666
-14.3445
2.79307
7.95156
-11.0294
6.88264
-17.6784
-5.26286
10.6811
12.2602
-14.9216
-0.0780678
-2.67873
-5.93883
-11.4735
16.1344
1.27791
7.94829
-4.63035
-9.25677
7.3272
-7.11741
7.53687
-0.209944
15.4887
-8.90748
-1.44862
-0.67332
-15.3037
10.2835
8.28155
-23.1954
14.1766
-15.3666
7.19322
-13.8333
0.481732
16.7587
-2.66015
9.99653
-4.84513
11.6073
20.4677
4.17189
3.73845
-6.96661
-5.42554
12.1876
5.55196
-8.23579
-9.50375
3.44998
4.98474
3.75286
8.64562
-3.27789
-1.62929
3.41453
8.2364
-1.07123
-3.69525
8.18101
-2.58305
4.2896
-5.13516
-12.6977
6.3529
7.48441
-9.48489
5.45046
8.91732
-1.97328
-1.39208
6.8492
7.05286
2.73046
1.53569
6.51962
-9.94681
-2.81597
-0.822074
-17.3605
-12.9238
-4.22278
2.04389
23.59
-21.4111
-17.4049
0.0970492
13.0851
-15.3086
-3.69781
1.60152
-1.94394
-12.7146
16.7024
-8.6802
6.83331
-7.47009
-11.4215
3.58296
11.1786
-4.61565
-14.2733
7.71034
18.155
2.98488
-9.9612
-7.75054
13.1909
7.62046
9.78383
-6.69427
-10.71
14.9255
-7.46134
0.15634
-19.4794
8.38982
3.33903
-6.71067
-14.225
13.9346
-2.9973
-4.62344
-10.308
-15.9334
-10.0611
6.56862
5.7373
-2.24477
7.64836
-12.5471
-5.16243
-10.2059
12.8657
3.21854
-5.87831
11.193
-16.2435
-5.15543
3.01468
-0.137714
8.31607
12.3224
3.5579
-13.7425
13.8351
6.47594
-0.100105
-5.99399
7.79226
15.6855
-17.4326
-6.04515
14.2793
-6.58713
11.6455
-2.68971
2.14006
10.4061
-0.223724
16.1403
-4.9511
4.49627
15.2815
15.1382
1.68066
12.1049
1.07267
16.2178
-2.00902
16.5885
-8.20813
-6.15556
2.19296
12.1707
-8.1297
-3.30142
3.22299
1.62666
-10.1474
0.391015
11.2182
-12.2784
2.68684
5.3538
-9.40243
0.747212
-0.465545
5.52821
6.36514
9.16178
-10.1731
-5.6972
14.2553
-5.01266
-2.74407
-1.6457
3.7305
-7.2894
-1.45376
3.2921
-9.70898
-1.62554
-7.36076
-3.70754
3.29532
-5.28498
-3.58466
2.59825
8.76399
-7.77757
3.69315
-3.40577
-3.87204
-2.49755
5.11925
-5.36577
-8.0387
3.86561
-5.97108
-10.5137
22.8148
-5.38638
-6.91477
4.02522
-13.7682
-0.770702
4.12075
18.7986
-18.8941
-0.22294
24.9814
-5.12577
-19.6327
5.96445
11.557
-29.2335
11.7121
18.3022
-14.4043
4.0854
16.4119
2.31755
16.9886
5.89535
-2.51241
15.1046
4.39648
13.9183
1.87141
13.8227
17.1232
-7.36918
-7.19089
29.6646
20.3718
24.1885
-14.9675
6.46571
-1.14505
-9.52719
4.20653
-9.88304
14.2165
2.1323
-11.3023
4.84318
-2.10286
8.56197
-4.36883
-11.3731
17.7966
-2.05465
14.0022
-6.23832
-12.1327
-1.54555
4.24543
-10.0327
3.90466
4.98297
17.1784
-17.1236
-9.58198
-8.67872
15.9741
-6.76341
4.20622
1.01164
-2.67326
-10.3285
-5.29995
-0.526508
-3.28204
-4.95129
-8.89029
-14.2484
7.14416
-1.57448
-6.46229
-11.0682
-3.91004
-6.34121
-2.15314
-9.7871
5.47795
-8.73644
3.87921
0.28288
1.88144
-7.19642
3.56871
7.50692
0.734091
0.891578
4.561
-0.260311
-1.53597
3.38952
1.45436
-3.39213
-0.871658
7.83249
-3.70645
1.04841
7.90817
-4.51135
-0.892747
-2.50407
2.92581
7.52089
-2.53853
-1.43021
6.47444
-1.15295
5.44367
-0.440646
-12.8344
-1.67077
14.9458
-8.55842
9.71051
-1.59274
-13.5066
7.43228
-2.77413
8.84848
-2.01965
-0.107845
-6.43092
-3.52208
-11.332
-9.90788
10.0004
-1.76324
-11.3342
-2.47185
11.3414
2.46465
-4.72658
-20.1142
-2.91026
0.434654
-5.60497
5.39716
10.0078
-9.79994
-18.227
-0.095859
12.7178
-6.72559
7.68243
-13.751
12.7942
7.32875
-18.7809
-11.448
-2.36015
10.8979
-5.34713
-5.1974
-9.46638
1.04477
12.0316
-3.64206
-9.43429
14.9818
-3.40108
-10.5359
-3.92657
13.9543
2.00387
14.3156
-3.26034
-2.87621
10.6401
-11.165
1.30036
7.48
-11.6566
0.0241496
-11.7445
2.83719
8.88319
-6.43142
1.31256
5.14301
-2.39092
6.59964
5.76089
6.16375
6.20828
13.5069
7.11979
-9.46149
1.22679
-5.49132
-5.26852
6.99499
4.48181
-12.1553
-3.404
10.2908
-3.80877
20.9151
-0.0492834
-4.83606
-16.0297
12.7628
-0.675065
8.82736
5.1978
-10.9727
18.5377
-3.12622
16.6452
-8.11158
-5.40736
20.3337
-12.0419
-11.418
-21.1056
27.5808
-6.52447
-4.93556
-12.6598
-3.51023
-7.20402
-1.4625
13.8643
-12.2496
4.37048
-7.82009
8.83594
15.6293
5.29431
7.21935
-15.4616
8.50638
-4.83409
-18.0122
7.38465
1.90682
-18.7828
5.11803
-11.3228
0.688833
15.9192
-16.1756
6.76047
10.1039
-15.9931
14.1339
26.9094
-23.2897
-20.9844
17.3647
-1.86167
14.031
14.74
-3.92714
23.9208
-10.018
-9.9757
11.6088
-21.3869
27.8176
-18.0395
-14.3228
2.64186
14.8021
-29.9414
13.2777
6.62484
10.243
-38.2547
-17.3447
9.64673
-12.3391
23.214
-0.613554
12.7594
13.6464
-25.7923
-10.4091
8.28525
26.5734
-23.4801
7.14966
-24.5502
11.5976
-8.38593
50.9734
-30.1027
-5.3326
-15.538
28.2241
33.1722
-10.423
-23.3469
29.1686
-19.5909
13.7692
-38.6515
-14.7982
50.0902
7.30256
-5.57976
-32.9571
-0.1147
12.5869
9.24707
-41.4248
-21.2461
-19.5949
25.9382
14.9028
-15.0561
2.42762
-8.61763
23.2697
-29.5549
23.9922
-17.7071
25.0856
10.771
-3.49602
-29.6477
27.564
-2.4493
-33.1539
6.04837
-24.7801
0.880476
4.3047
-22.7871
-17.0491
20.6715
4.20121
30.4184
15.3387
-28.7324
5.06788
8.72208
-2.2755
-11.5145
-12.9066
11.4196
6.55492
5.42099
-12.2995
-6.02813
-8.60226
14.0587
2.66708
-8.12351
10.8153
-16.3417
-3.07585
-5.33493
-2.97627
19.7308
-3.89653
7.28368
-1.24965
6.0208
9.28754
5.66912
11.6877
-3.59961
14.7322
-12.2122
-1.71253
5.65795
8.26675
-8.26109
1.22388
-5.17497
4.20577
-3.13078
-9.33607
1.28212
1.21112
-1.83901
5.09782
-1.9767
6.90177
-3.26315
-5.47763
-5.32911
5.07426
5.35267
3.00887
-1.4362
-8.48632
3.3336
10.8107
-4.72906
-2.53338
0.868894
3.25809
-7.25777
5.96591
-3.13341
0.703751
-3.53625
2.07027
1.69458
2.20106
3.50974
-5.904
-4.19718
3.74969
2.51776
-3.82085
1.26852
5.49005
2.68687
-4.15785
-6.87788
4.63694
3.93552
-3.48725
8.85754
-0.887003
-8.58677
-9.15788
21.749
-4.00435
-13.5274
-16.6229
21.5636
5.07894
7.07227
-0.0220276
-12.1292
-0.0342476
-8.41426
5.90473
-7.99034
-11.6138
1.81119
22.691
-12.8884
-0.744927
10.8801
-5.64772
14.7667
-9.15326
7.67108
-13.3408
7.46635
-14.9897
6.77843
-5.56677
-6.49891
13.8769
-8.22546
10.125
7.09319
5.17857
2.49498
-3.77483
-5.31014
6.6793
-15.1593
0.254553
7.27358
-11.2631
5.39377
-3.93756
-1.99688
0.540674
-1.61303
7.60611
-0.599313
-0.614271
2.16566
-5.50539
3.954
1.40009
-4.83047
2.81611
6.84476
-8.00934
-2.77298
7.39738
4.17221
-2.60624
-4.60833
3.04235
3.12117
2.45113
-0.485623
-1.3357
-3.68406
-3.57183
-1.74426
-6.0876
-0.0904672
13.2202
9.62629
-4.89257
-17.9539
-0.96588
7.23281
6.95326
4.99751
3.6629
12.2595
-2.97166
-4.29033
4.47086
7.17052
-16.534
-18.9755
3.63528
27.5997
-3.75871
2.6688
-17.8856
6.63958
-11.5983
9.42962
11.2141
5.29592
-9.33948
6.65476
11.7921
14.7797
-16.5677
-1.97075
25.0698
-4.63219
15.4653
12.2657
0.759615
-28.4906
0.221304
21.5474
-6.30335
-34.2332
7.91941
13.103
13.2108
1.59838
-12.1187
-23.7129
35.9949
-10.8797
-23.5168
23.1018
20.8125
35.2567
-33.8707
2.22398
24.1956
8.83716
-9.75528
13.7156
-3.73902
8.21712
-17.2128
-23.1536
18.3264
7.05112
11.8836
-13.4899
14.9776
-18.8791
11.6665
35.6309
9.94625
9.2682
-4.23688
16.7986
6.25061
-14.3548
7.56895
25.1123
-7.55621
5.08502
-10.6601
8.93549
18.5232
-3.36892
1.977
2.79048
28.1709
3.95725
5.86817
-24.0294
14.204
8.77293
22.9739
-27.7896
0.363094
17.813
-12.3079
26.9657
-17.8297
31.1135
-13.4663
5.32674
42.6393
2.53231
-19.852
-25.3197
19.7152
16.6358
-18.538
19.9812
27.0775
-20.093
40.1051
-0.408812
0.942077
28.4466
13.2506
-39.3123
12.756
27.4984
-15.8087
15.8906
-39.3942
31.3176
-12.1494
-2.94296
12.987
17.0335
16.4881
20.674
11.5577
-4.82254
24.5824
9.53386
18.512
-15.7071
27.2699
1.1932
15.8185
-0.5137
13.0984
0.534548
14.6546
-3.76111
-11.428
-4.31985
18.6194
-13.765
-3.53666
19.4481
-20.2313
11.7372
0.46436
-15.7382
5.77233
11.5431
-2.66084
19.4305
4.96127
-3.91508
12.3742
3.27812
16.8872
-1.35418
10.9837
-14.2804
-15.5434
-11.9946
9.40776
18.1302
2.67833
-17.1162
-1.10555
14.5134
3.22667
-0.381615
11.6684
12.9356
0.976555
5.5183
14.4079
-20.5403
-0.764163
3.17741
0.791356
11.8431
2.69732
9.8567
11.8565
6.00723
8.97704
2.63297
-5.92848
9.41715
14.905
-5.22102
7.55528
-8.02958
5.69532
-0.502979
-3.64943
-1.06861
-8.50398
7.91628
-7.47817
8.06587
-2.45376
-10.9653
4.91505
-5.25567
9.61968
3.55227
-4.49181
-1.26684
-5.90526
2.45056
-7.09887
10.5536
4.8414
-1.12698
-1.81587
9.10783
-6.42204
12.1614
-12.4783
4.94006
-0.491288
-9.17562
-6.95216
-8.54177
1.5962
5.67363
-0.108917
-0.412906
-5.15181
15.1175
-16.5427
-5.99689
4.5149
-0.540459
-5.56534
7.50516
-5.69623
-7.17427
5.36534
3.54263
1.19106
2.77147
-7.64854
-9.48822
5.56808
11.5687
1.86883
4.05326
-11.6183
6.98637
-12.7661
-8.3162
5.78208
-6.40004
8.93416
5.10006
-6.42989
-7.13894
2.30265
1.8863
2.94999
7.92796
-11.0136
6.90133
4.06471
-3.03808
4.14386
5.06012
2.12763
4.85873
-8.48412
9.19745
3.43053
-0.876784
-4.99305
-3.20635
16.2434
-8.04399
-26.3144
0.999736
13.7677
11.547
-1.70402
-26.2799
1.66947
-15.7858
-2.74999
13.5428
8.30733
-1.0021
-23.0911
-20.4152
9.96197
11.453
0.255875
-22.3751
-5.23896
11.9946
-17.8128
9.8239
-19.1736
1.61661
16.2906
2.01612
0.446285
-18.753
6.97476
10.2199
-0.904069
-5.93104
-4.23085
5.2284
4.93348
-12.0174
-7.41366
13.5
-11.6828
11.8799
6.77764
1.47375
-11.1404
-11.8571
10.0596
1.71071
-13.1215
-4.35338
16.7422
-0.508921
-3.10819
-15.945
14.8224
-21.5387
2.88096
15.5496
-1.7763
-22.8291
3.06661
-18.2796
0.558247
-14.723
13.2506
2.86533
-19.4342
0.467638
-20.4314
-12.7816
-23.021
8.23597
16.5699
-1.78486
-9.22657
5.98065
-19.7751
-2.07111
9.9116
5.56978
-13.4103
19.0083
7.23661
-28.316
1.44936
14.7706
2.78831
8.94115
2.41981
24.0546
13.1894
-20.9188
-16.3252
16.8976
9.0011
-1.84406
-22.3486
15.4011
23.8451
-6.04712
-3.11206
11.8881
-15.5449
16.0177
4.10637
9.45771
-6.14006
2.663
21.4022
4.62544
-20.3685
6.68629
-13.9182
5.54945
23.7698
-5.19464
16.8459
8.113
14.1398
20.3993
-13.1369
36.5351
5.4335
9.78329
0.351376
-15.5682
10.0695
-11.2538
6.61787
-4.95427
1.33974
13.684
-2.86067
7.68969
3.55331
-0.0690398
-14.7381
-8.39198
-3.50136
13.2331
8.52859
-3.80624
2.58102
-7.30337
5.27112
8.17354
-4.38531
-9.05935
11.2678
2.33667
-8.33333
1.10445
11.9883
-4.91922
13.273
-3.63994
-7.55817
2.7195
2.83543
5.57167
-10.2164
9.55044
-6.36683
8.13876
-0.652016
11.9784
7.11778
-12.1236
-6.97263
9.55357
2.05306
0.371803
-4.71427
4.51974
9.7481
-0.479935
2.88344
2.82808
10.6964
-11.4714
-2.37465
15.0438
-8.14945
-2.72026
11.9876
-5.73915
-3.52821
6.3341
-7.6284
-1.42597
5.19353
-6.57024
0.896778
-10.2568
13.0756
6.66053
0.516506
4.81058
-10.2533
6.65705
-10.4894
-6.89317
-4.5269
4.5886
6.83147
-8.8499
1.07465
0.882077
-1.95981
-3.1178
0.550721
6.27192
-7.90854
-0.323196
5.11029
-7.86857
9.0302
-6.13276
15.8316
-4.7039
-7.2638
6.92438
-8.33756
2.48783
-4.85345
5.64507
-7.44176
-0.363536
-0.103236
-3.576
-9.14603
-8.55859
-0.151245
0.37227
13.0286
-0.531115
-11.0283
-1.4692
16.0799
15.5555
-19.6113
-12.0241
3.91638
10.7285
1.43503
11.8573
5.08764
14.0298
3.16389
-1.63813
12.8194
11.9388
23.4264
-12.0511
-3.29054
-8.08476
0.334734
-1.5133
24.605
-14.7723
-0.595047
15.702
-14.9661
21.9717
-14.2114
-11.0508
-0.938116
21.3965
22.5109
-16.7769
-6.43196
0.697914
0.398204
21.1746
10.4371
-13.0297
-14.1842
15.3019
-1.70088
-0.867559
13.0919
-6.1377
-14.5056
14.8325
12.0684
-0.702634
3.98174
-15.3475
0.983906
14.7295
-3.64499
20.4139
16.8668
-23.0383
-14.2424
-2.05953
9.02792
13.4455
5.25114
9.5561
10.7319
2.4709
-13.9054
-2.78295
14.4987
11.2752
12.4822
3.2325
-22.289
-17.376
6.98497
9.81014
0.580911
-11.7545
-0.19781
-5.42375
1.58444
16.5416
-6.8508
14.3162
-0.302194
-10.7815
9.09105
10.4763
3.03618
-12.3197
-17.2827
4.85778
19.4099
-11.6787
-5.80186
15.5333
-8.94471
-5.70069
1.71019
-0.368089
4.35859
0.920781
-5.7174
-0.904077
6.19305
-4.42543
-0.846837
1.76719
6.13605
-6.23342
1.68743
4.1779
-5.7837
-6.16711
2.99694
2.1787
-3.48821
1.35696
7.30572
-5.66574
-3.98865
7.11281
-2.05951
-2.62177
-2.08125
6.76254
5.25671
-3.27085
-4.04538
2.04319
-0.47822
3.69174
3.08385
-2.84473
-4.66454
1.13839
3.22696
-9.34253
-5.17852
-10.1695
14.8169
-15.6029
10.9556
8.00202
-0.154541
-18.017
0.720212
-3.00924
10.291
-4.47962
20.0167
-24.7424
-1.30921
5.28648
20.7652
-13.8391
-1.5427
-9.36064
1.67286
-5.64999
-11.6258
-2.98125
-15.7612
14.2628
-18.4098
14.1193
-12.18
-20.0689
18.2102
-11.3639
-8.38901
20.4874
-9.73887
-4.34948
-8.45021
-0.570852
-2.34281
2.99243
-17.0527
5.61001
-18.9265
6.25105
7.97923
-14.2303
12.8017
-12.665
6.11435
2.27434
-3.38599
9.09088
-1.5421
16.6181
3.61688
-17.8472
-12.7907
3.74261
1.82762
-17.7431
1.76099
14.1545
-17.4831
4.36403
14.9467
-20.8579
19.6536
1.83265
-0.62829
-2.00226
1.70943
-20.5651
-2.22166
4.1321
-20.4294
0.724722
-16.0432
18.8651
-2.69713
2.1073
-12.2009
0.535861
-21.0802
-14.726
13.101
13.8863
-15.3527
0.992907
-0.206693
-18.5133
-14.1426
1.08665
7.12622
1.46399
-9.67685
2.37498
0.183439
-13.3271
10.7687
16.5156
9.27663
-18.7623
-7.02993
-9.36837
14.5139
11.3701
-6.75271
8.77516
-2.63928
0.61682
-8.98787
2.50375
-0.268593
14.9737
2.66303
-15.2617
-6.44133
12.4271
0.71512
-4.49342
-9.79999
10.1989
-2.82093
2.42199
2.37232
-11.9889
-3.18814
8.32876
4.136
1.50125
-17.8912
-7.152
8.09744
-9.13335
1.76958
-4.29872
11.6625
-6.63361
-23.9442
21.4445
3.32927
20.1314
-14.1727
-9.28803
-13.7344
3.62414
6.48104
3.62924
-13.1274
-15.0679
14.4609
-21.7693
2.00827
-8.03135
11.3777
16.6946
-20.041
-4.96359
-1.29817
-5.37448
-9.07689
17.7806
-8.61797
-10.8609
14.1044
-7.65874
2.6649
2.34145
-0.0406517
-12.3461
3.82669
-7.83936
-12.1655
-7.0436
5.45234
-7.08442
8.67569
-10.2411
5.79464
-2.59714
0.117815
-10.4152
11.5512
-1.25379
-9.32451
-0.798774
-6.01616
-3.7049
15.1734
-6.20293
5.9814
-0.0178775
-15.1203
8.93521
-20.4362
8.2098
12.2085
-0.766037
6.33518
-14.8937
6.76735
-17.9486
3.42894
-12.214
-6.09595
-10.9113
-0.525887
4.99263
-9.61431
14.1192
16.2101
-15.5387
6.06987
39.5702
-23.7415
-1.43858
-14.3902
1.15557
18.3029
20.1118
-28.1153
-1.87843
19.3002
10.6935
-16.2442
-35.6125
-21.5605
11.0358
11.6803
-14.3154
-8.68369
-22.3793
11.8857
8.61519
-10.5858
7.65468
-19.4482
0.424769
-27.2548
7.37781
30.2253
8.72664
-12.2713
14.5805
-27.3581
24.7207
14.5231
-5.00704
-14.6964
13.444
8.59595
-21.6152
21.6469
-5.54249
12.1195
-12.9909
-1.90529
1.75347
15.9159
-12.327
1.77573
12.2348
-5.70499
2.60498
-13.902
17.002
15.1469
-17.1268
-2.51025
5.35634
-6.59417
16.3847
-11.3137
0.266323
-9.52005
20.5675
-1.47325
-15.5455
-2.18398
21.6148
-4.39169
0.737732
-13.4729
-10.0465
18.251
-7.93814
2.47123
-13.991
-18.0917
16.1713
2.99388
3.41453
13.7904
-20.1989
7.50525
22.9919
-27.5032
12.3275
-8.98481
9.14789
15.6463
4.22359
-1.61896
20.9676
7.81086
5.94831
-24.2798
10.7898
-14.8358
-5.53002
8.90249
7.3807
0.801101
17.5553
-7.56664
9.60789
8.68932
-12.3489
-6.04963
16.4586
7.69663
4.32868
10.934
6.35086
-9.58825
-1.05244
8.80191
1.96162
2.1822
-15.2692
11.1254
15.3938
-6.57823
6.87813
-15.6937
-4.55727
-0.902639
20.8537
-12.8753
3.45788
-2.06967
11.487
4.08918
-15.0028
-4.37591
14.9326
-15.114
-10.0076
-3.7876
12.8925
-16.6306
0.0447894
21.435
-0.865173
-10.1023
-10.4675
2.2332
2.09227
17.1096
17.7395
-9.20737
-9.39731
4.49559
15.4771
13.0338
3.94156
-12.8862
-0.138897
-0.495327
-12.7175
17.1544
-4.17143
-12.3015
15.9776
19.4396
-11.7889
-17.753
17.156
13.9781
-13.2702
-13.7781
12.9258
9.10599
-17.9663
-4.06549
-6.67418
11.0352
8.56479
5.67174
-3.23993
-14.2729
3.74844
11.3046
-0.780151
-15.7269
-10.8573
12.3113
1.86501
-13.1097
16.9165
-4.16378
-10.8763
16.9051
3.24244
11.5412
13.0423
-12.2284
-4.9777
18.192
-9.23715
4.08745
4.105
19.0438
-4.95683
20.8384
-13.491
-8.54732
-1.74789
-3.73505
14.0303
-13.3075
12.7385
-7.97832
8.39025
-5.81983
-2.57042
3.08144
-0.496535
11.5998
-14.1847
0.209752
11.2619
7.78949
-3.84141
-5.69596
1.207
5.67121
-1.89453
-4.98368
7.67454
-6.46754
1.8547
2.13859
-10.8138
8.17864
-5.57818
7.92652
-7.25068
-14.8875
16.56
-5.39597
-15.6981
-13.0832
13.8937
-13.1497
-7.94433
-4.55069
-2.87918
-5.6533
-12.0292
-5.90346
1.69171
10.2766
1.12497
-13.0932
-15.8227
13.9605
3.55396
0.619472
-0.650805
-15.7914
-1.45069
0.022491
15.3887
-1.19711
10.023
4.88811
-19.6511
16.1445
-1.38149
11.9975
-11.0647
3.95533
14.8838
-2.50886
-15.6052
3.2303
15.4072
-0.523394
-16.0267
-1.67409
17.7232
-0.437234
11.2376
4.67531
-1.217
-23.1094
-8.4666
2.07721
16.6694
-1.02524
0.500331
1.21511
15.0171
14.399
-18.1248
-0.711768
14.5873
15.178
-15.637
-17.8186
-14.8705
22.4187
10.2703
-4.96295
-25.2192
12.3636
8.16678
-1.86202
-21.1752
5.3901
28.4874
-11.4588
-23.8155
-9.26401
15.0906
17.989
16.0639
-27.6852
3.64201
7.9793
-5.11131
26.5653
-25.3349
-3.52871
5.04812
-21.247
1.72859
-0.151284
-17.8394
-3.2563
29.2285
-24.8495
-4.53023
19.0286
13.8419
-11.6274
25.5447
20.3341
-30.2571
-1.70437
4.08292
-18.4834
-3.43893
-20.6011
-0.165483
4.24158
-8.18034
-4.89094
8.82969
-3.52877
2.11103
5.65933
-2.2277
0.0555661
-6.0082
8.34529
-0.168158
-10.4048
8.63147
-7.81191
-10.6753
9.85578
-3.24346
4.87196
7.00297
1.57305
2.15349
-10.1336
-5.59122
5.97189
0.545658
-19.1017
12.5842
-5.14682
5.03606
6.08265
9.77319
-0.542737
3.78164
-13.0121
12.6054
6.22251
-18.2822
-11.4663
11.6037
15.3936
-15.531
-1.34488
-10.1215
-10.9484
8.91731
11.8042
-12.2932
8.9171
3.14555
12.1298
-7.74182
1.83454
-3.92823
24.4492
17.1187
0.996567
-2.29607
-12.379
13.6785
-1.38101
-10.8976
13.2752
2.23864
0.905111
-15.3894
12.2456
-12.9466
13.8042
-12.6908
11.2998
5.64224
-10.4908
-7.53042
-5.25541
-3.85212
-14.1448
5.05032
6.45686
-3.77472
2.18988
-4.87201
-15.7028
9.46886
-2.00951
-17.468
-9.10753
-1.2434
-11.9561
-2.64797
-12.7402
1.34447
-13.8448
-10.411
13.4911
-13.9239
5.45839
-5.0256
-7.08
7.36168
13.2095
8.67194
-2.54567
-20.0502
1.59194
9.67573
4.14807
-8.3654
19.8868
-2.84942
-7.86766
9.45961
-11.846
1.59204
12.3166
-2.06268
-5.5399
-14.1737
-17.5562
9.47062
9.35977
-13.2706
-13.5643
17.4751
-0.389189
9.74896
-0.390345
9.72713
1.38778
-10.7246
1.93182
-15.5928
8.60248
8.35829
-7.23364
8.21329
-0.573027
10.3222
-8.36136
13.7709
-12.4121
0.199521
12.3604
-12.9236
0.363661
3.66392
-6.06026
16.1672
-0.536467
-11.7327
11.6126
0.656591
7.67683
-3.26702
-0.107383
15.0583
-11.2599
-0.134438
-0.225361
15.6697
-0.386067
0.442807
7.43354
11.83
-4.20476
-16.1018
14.9273
-12.3782
13.5527
-9.88238
-2.64213
-3.57726
4.1352
-1.58873
12.3808
-22.527
1.44354
8.70524
-19.2329
-13.1765
-9.71541
15.2112
-1.36059
15.747
-12.5913
-5.79775
10.2756
3.88258
-16.5962
8.32432
26.1356
-6.97033
-27.4156
8.25026
22.8177
-13.2783
16.3039
3.75615
-6.03434
-14.0257
10.7939
4.552
0.957979
1.60926
-27.8125
-11.5284
11.7405
10.5818
-6.07971
-1.69252
13.6154
-18.0405
5.57605
11.7278
10.8845
-11.4249
-11.1874
-5.79081
13.9841
3.53451
-20.5781
3.68725
13.948
2.94276
-9.47318
-0.220409
17.7577
-12.2802
2.05093
-7.5284
22.71
-6.6947
1.74237
11.0024
0.395019
-22.8223
8.13172
-2.92017
12.9284
4.74295
10.877
-21.6977
11.2157
6.41943
-7.82263
-17.1918
-16.0889
20.3797
12.9009
1.63789
-10.6979
-8.03157
0.0306387
35.1856
-22.1799
-13.0363
32.5217
-12.0446
-20.4464
5.1958
15.8206
14.1693
18.207
19.5104
-21.5076
-6.38475
5.7124
11.2333
13.0179
-8.43057
-11.0121
2.22627
12.7468
-3.96102
-11.5397
-1.86544
2.39306
16.6914
-4.68344
-12.8653
0.857378
11.4197
-6.26799
-15.7538
17.2961
6.02797
-7.57026
6.79855
-20.6238
-1.92862
-1.99415
15.4537
-4.91759
21.1305
-20.9954
2.27769
16.5402
2.17752
-21.9389
-11.8466
12.7901
14.4239
-12.3088