/*--------------------------------*- C++ -*----------------------------------*\
  =========                 |
  \\      /  F ield         | OpenFOAM: The Open Source CFD Toolbox
   \\    /   O peration     | Website:  https://openfoam.org
    \\  /    A nd           | Version:  10
     \\/     M anipulation  |
\*---------------------------------------------------------------------------*/
FoamFile
{
    format      ascii;
    class       volVectorField;
    location    "1";
    object      U;
}
// * * * * * * * * * * * * * * * * * * * * * * * * * * * * * * * * * * * * * //

dimensions      [0 1 -1 0 0 0 0];

internalField   nonuniform List<vector> 
75457
(
(5.53247 -0.527128 -0.599855)
(5.48684 -1.5932 -0.988025)
(8.00561 -0.378221 -0.224758)
(10.6051 -0.805896 -0.748735)
(5.40728 0.62677 0.11016)
(5.63254 0.907033 0.079914)
(5.83439 -0.873524 -0.620642)
(5.62517 0.558121 -1.10219)
(11.6115 -1.22441 -0.814001)
(11.4637 -0.950114 -0.595282)
(11.8123 -0.760613 -0.672493)
(6.44447 -0.27635 0.423715)
(6.60351 -0.370959 0.0392075)
(10.9113 -0.819094 -0.0362018)
(10.3363 -0.204383 -0.247162)
(10.3769 -0.195598 -0.231516)
(10.4496 -0.203061 -0.257874)
(10.3914 -0.218979 -0.298591)
(10.4174 -0.218796 -0.2476)
(10.4152 -0.164764 -0.230415)
(10.3756 -0.190226 -0.27138)
(10.4494 -0.208991 -0.242623)
(10.4194 -0.251243 -0.289959)
(10.4329 -0.270264 -0.296881)
(10.4713 -0.232677 -0.256289)
(10.3721 -0.260815 -0.324187)
(10.3236 -0.257447 -0.315289)
(9.97585 -0.191271 0.00337145)
(9.96411 -0.195447 0.0340296)
(9.97106 -0.166948 -0.000181691)
(9.99113 -0.137485 -0.00489585)
(9.9725 -0.149463 0.0163225)
(9.97898 -0.141444 0.0181013)
(10.0108 -0.150538 -0.00509086)
(10.008 -0.131106 -0.0107282)
(10.0238 -0.159346 0.0277249)
(10.015 -0.165233 0.00624117)
(9.96362 -0.174032 0.0324673)
(9.97557 -0.155634 0.024239)
(10.015 -0.114006 -0.00613936)
(10.0166 -0.127081 -0.00200531)
(10.0172 -0.112902 -0.000697577)
(10.0256 -0.149838 0.0249919)
(11.792 0.794428 -0.174918)
(11.7565 0.840852 -0.394513)
(11.6437 0.630626 -0.0581293)
(11.6688 0.583083 0.0207898)
(11.7139 0.63215 -0.166061)
(10.8893 -0.0221418 0.0952374)
(11.0396 -0.00445322 0.167798)
(11.0837 0.00418713 0.153457)
(10.9454 -0.0104433 0.137517)
(10.8079 -0.00687403 0.0341027)
(11.0001 -0.0112051 0.152039)
(11.0684 0.00966454 0.183635)
(11.0989 0.0205268 0.158937)
(10.939 0.00859763 0.0942809)
(10.965 0.0136486 0.0851742)
(10.9066 -0.0105913 0.0559651)
(10.8002 -0.00263132 0.0300559)
(10.8851 -0.000297418 0.0625126)
(10.9751 0.00211586 0.101462)
(10.0628 0.0427666 -0.357023)
(10.0537 0.0536696 -0.384882)
(10.1771 0.0627759 -0.314448)
(10.0377 0.0475285 -0.351651)
(10.0494 0.0421677 -0.340042)
(10.0059 0.0253184 -0.333006)
(10.0284 0.0302947 -0.266419)
(9.94047 0.0164595 -0.296162)
(9.93783 0.00345581 -0.296633)
(9.90765 -0.00377143 -0.306503)
(10.0629 0.0330479 -0.27356)
(10.1521 0.0689204 -0.320352)
(10.0293 0.0360297 -0.255557)
(10.1581 0.0574678 -0.282732)
(10.1413 0.0542393 -0.272563)
(0.97071 -1.00004 1.45903)
(-2.21259 -0.45197 -2.23113)
(0.556005 0.270328 -2.2148)
(3.03244 -0.308572 1.19763)
(-3.49629 -0.603561 -2.21861)
(0.513178 -1.21168 0.554088)
(-0.635745 -0.573424 0.242336)
(-0.384942 -0.726272 -1.75556)
(0.312307 -0.781283 -3.42416)
(4.64422 -1.33391 -2.29297)
(3.58461 -0.873058 -2.09249)
(4.09038 -0.381221 0.288866)
(4.25039 0.181762 0.746514)
(2.30572 -1.06629 -0.0673947)
(1.43906 -1.51338 -1.2746)
(0.326964 -0.111807 0.139583)
(-0.052718 0.135734 0.431453)
(11.0479 -0.237958 -0.0443331)
(11.1711 -0.262086 -0.0793502)
(11.1706 -0.258291 -0.0781114)
(11.1946 -0.269813 -0.0765932)
(10.9281 -0.24242 -0.0192369)
(11.0648 -0.257196 -0.0486154)
(11.1101 -0.262421 -0.0406095)
(11.0442 -0.258404 -0.0334534)
(10.0175 -0.00995368 -0.0191583)
(10.0278 -0.00913018 -0.0158529)
(10.0209 -0.0150032 -0.0216875)
(10.0212 -0.0196724 -0.0153021)
(10.0123 -0.0177215 -0.00649273)
(10.0238 -0.0175015 -0.00544566)
(9.85593 0.000723552 -0.0201215)
(9.9338 -0.0143397 -0.0147393)
(9.94521 -0.0182447 -0.0109948)
(9.90239 -0.0189464 -0.00148962)
(9.87149 -0.0257453 -0.0227683)
(10.8114 0.0820131 0.0654423)
(10.8475 0.0995192 0.190354)
(10.5131 0.0739644 0.113986)
(10.4941 -0.00129877 0.0316267)
(10.8444 0.0581598 0.206583)
(10.7222 0.121316 0.121211)
(10.5816 0.178139 -0.0209139)
(10.8761 0.0801247 0.272929)
(10.8578 0.0992853 0.281886)
(10.7549 0.103949 0.278664)
(10.6248 0.132019 0.13073)
(10.5282 0.104732 0.0931985)
(10.5523 0.100944 0.151971)
(10.5658 0.141866 0.0676591)
(10.627 0.0695225 0.153198)
(10.6693 0.0273633 0.0836479)
(10.6516 0.0930142 0.240326)
(10.7513 0.0916868 0.255735)
(11.3185 -0.00813283 0.285407)
(11.3544 0.0331587 0.239568)
(11.3615 0.0196725 0.265167)
(11.3108 0.0146274 0.241302)
(11.289 0.00652127 0.231096)
(11.2997 0.0585545 0.25975)
(11.2571 0.0222822 0.239201)
(11.2675 0.0154439 0.274841)
(11.1861 -0.0112832 0.247365)
(11.5785 -0.0106373 0.107767)
(11.5794 -0.018318 0.118981)
(11.5298 -0.0123515 0.138735)
(11.5745 -0.0049435 0.093163)
(11.5968 -0.0165601 0.100448)
(11.4605 0.00682044 0.0719867)
(11.5279 -0.0108031 0.145214)
(11.544 -0.0181828 0.122704)
(12.0028 -0.0636528 -0.0094913)
(12.1343 -0.0552264 0.00213906)
(11.8545 -0.0831881 -0.0693273)
(12.0296 -0.0266623 -0.000933368)
(12.2238 -0.067765 0.0846178)
(12.1679 -0.0292839 0.124773)
(12.0535 -0.0611675 0.0466003)
(11.9632 -0.0271665 0.0097237)
(11.947 -0.0376675 0.044609)
(11.8637 -0.0398702 0.00190072)
(12.1665 -0.0362528 0.116131)
(12.0149 -0.0286261 0.00259991)
(11.963 -0.0712098 -0.0234536)
(12.1389 -0.0418147 0.15223)
(11.9617 -0.0364575 0.0381418)
(11.4488 1.00711 0.831346)
(11.2136 1.17772 0.829137)
(11.1277 1.25395 0.798615)
(11.3063 1.14725 0.746439)
(11.1794 1.0558 0.711849)
(11.6367 0.860284 0.789787)
(11.4762 0.679421 0.493974)
(11.36 0.813441 0.628074)
(11.4886 1.19306 0.950463)
(11.3717 0.897441 0.610743)
(11.4721 1.00617 0.64567)
(11.7302 1.05379 0.824813)
(11.5541 0.851004 0.545043)
(11.9806 -0.168736 -0.128839)
(12.0644 -0.133995 -0.174754)
(12.0524 -0.101791 -0.0908331)
(11.9473 -0.128907 -0.0457244)
(11.9858 -0.108275 -0.0459889)
(11.7756 -0.109759 -0.035891)
(11.9426 -0.183066 -0.0750835)
(11.8504 -0.198838 -0.0315954)
(11.6946 -0.206103 -0.000903012)
(12.021 -0.138388 -0.191154)
(11.9134 -0.13298 -0.0768524)
(11.8999 -0.171205 -0.116573)
(11.7599 -0.117495 -0.0391419)
(11.704 -0.103628 -0.00244158)
(11.0073 -0.121607 -1.39054)
(10.7627 -0.24983 -1.58669)
(10.7557 -0.0499184 -1.72027)
(10.4809 -0.124102 -1.44869)
(10.3287 -0.160935 -1.60881)
(10.4124 -0.0822096 -1.5164)
(11.8964 0.191721 -0.463308)
(11.8278 0.102467 -0.353051)
(11.9007 0.0703816 -0.315433)
(11.8671 0.0509416 -0.351872)
(11.9797 0.0691878 -0.336186)
(11.8292 0.0553455 -0.115736)
(11.6422 0.143773 -0.102177)
(11.6782 0.129621 -0.0826869)
(11.7451 0.136612 -0.161699)
(11.9373 0.104587 -0.154055)
(11.8558 0.0919185 -0.0274581)
(10.9282 -0.00293466 -0.129467)
(10.8847 -0.0366527 -0.0386174)
(10.882 -0.0447732 -0.0386134)
(10.972 -0.0673505 -0.0958924)
(11.0007 -0.0136849 -0.186675)
(10.774 -0.0223244 -0.0330282)
(10.8264 0.029889 -0.115431)
(10.9459 -0.0182447 -0.177349)
(10.8554 -0.0165195 -0.113992)
(10.7821 -0.0484148 -0.027215)
(10.9778 -0.00713433 -0.192666)
(10.7655 0.0187209 -0.126904)
(10.7055 -0.0081899 -0.00982449)
(10.7345 -6.94693e-05 -0.0668213)
(11.6598 0.166773 -0.0117093)
(11.6677 0.175114 0.0159831)
(11.5397 0.144195 -0.0268886)
(11.7473 0.109876 0.00840249)
(11.6824 0.127764 0.0370315)
(11.5616 0.12939 -0.0216581)
(11.7359 0.132645 0.0095831)
(11.722 0.17749 -0.027198)
(11.5985 0.154855 -0.00484897)
(11.8398 0.151539 -0.0323877)
(11.8544 0.112919 -0.0214616)
(11.6645 0.118105 -0.00798865)
(11.7254 0.170888 -0.0124336)
(11.7616 0.119762 0.0116833)
(10.879 -0.0288822 -0.356863)
(10.8047 -0.0135318 -0.416833)
(10.8628 -0.0824907 -0.337004)
(10.8282 -0.0568941 -0.26526)
(10.8555 -0.0640239 -0.263959)
(10.8952 -0.0888127 -0.36634)
(10.8226 -0.00128152 -0.287374)
(10.7303 0.0226547 -0.347572)
(10.7966 -0.0319492 -0.425355)
(10.6452 -0.0112631 -0.332207)
(10.75 -0.0563409 -0.374836)
(10.7657 -0.0264125 -0.255889)
(10.8073 -0.0200639 -0.243057)
(10.7292 -0.0233259 -0.402446)
(10.6207 0.00270275 -0.354247)
(10.7698 -0.0138296 -0.252452)
(10.7033 0.0186754 -0.346416)
(10.4215 -0.190211 1.0015)
(10.0314 0.0272842 0.869371)
(9.78808 -0.0932983 0.955862)
(9.89343 -0.0285039 0.905905)
(9.51484 -0.230661 0.838261)
(9.87243 -0.306588 0.750625)
(10.3528 -0.356044 0.762506)
(11.1832 -0.49421 0.776317)
(11.126 -0.50714 0.835192)
(11.1047 -0.475736 0.800024)
(10.3113 -0.262227 1.02983)
(10.0217 -0.308364 0.7722)
(11.2818 0.0441291 -0.117957)
(10.9464 0.0761764 0.0313852)
(11.1495 0.00587618 -0.170332)
(10.867 0.0158901 -0.108696)
(10.9394 0.066296 0.003886)
(10.9003 0.00157148 -0.0824578)
(10.8516 -0.0398621 -0.103453)
(10.9459 0.0708312 0.00652054)
(11.1145 0.0447319 -0.183135)
(11.1753 0.0675824 -0.167876)
(11.2247 0.09004 -0.119698)
(11.244 0.0669079 -0.174312)
(11.1673 0.0678232 -0.0983156)
(11.4591 0.0011838 0.0625545)
(11.4114 -0.0065301 0.072948)
(11.4815 0.00236488 0.0793532)
(11.5073 -0.018279 0.111016)
(11.4649 -0.0197487 0.104331)
(11.5081 -0.00323731 0.0500942)
(11.4654 -0.0141155 0.0670866)
(11.5296 -0.00813296 0.0884685)
(11.4888 -0.0136932 0.0908962)
(11.5172 -0.00316564 0.0524323)
(11.6233 -0.0158998 0.093853)
(11.6009 -0.0110006 0.0769156)
(11.575 -0.00722866 0.066135)
(11.6067 -0.0142656 0.0645285)
(11.6286 -0.0182108 0.0657943)
(9.87886 0.00430532 0.0274269)
(9.78213 -0.00378542 0.0265422)
(9.77438 -0.00798851 0.036717)
(9.71787 0.00529092 0.0358581)
(9.77296 -0.00175279 -3.69733e-05)
(9.87288 7.18627e-05 0.022475)
(9.88781 0.00740146 0.0297674)
(9.74899 0.0197318 0.0241148)
(9.83577 -0.0113658 0.0290111)
(9.7321 -0.0109147 -0.040829)
(9.64458 -0.00712913 -0.0340869)
(9.77758 -0.00561356 -0.0321794)
(9.79535 -0.00311251 -0.0323184)
(9.75549 -0.00346872 -0.0286867)
(9.65051 -0.000719942 -0.0260034)
(9.7264 -0.00137135 -0.0310788)
(9.7528 -0.0181575 -0.0401816)
(9.63715 -0.0157156 -0.0254544)
(9.7799 -0.0101883 -0.0404631)
(9.7942 -0.00919392 -0.0295664)
(9.78985 -0.0137469 -0.0273225)
(9.81676 -0.0100375 -0.0253866)
(9.53248 -0.0066168 1.36102)
(6.4682 -0.198619 1.43038)
(7.32909 0.163568 1.22546)
(9.85236 -0.12808 1.06928)
(10.0087 -0.146551 1.27871)
(9.69516 -0.170105 1.29076)
(10.1424 -0.147785 1.37008)
(5.2771 0.44854 1.24249)
(4.15032 0.515671 0.982917)
(6.76081 -0.310782 1.59484)
(6.82024 0.0103015 1.4684)
(11.3021 0.0853988 0.0701395)
(11.3194 0.111192 0.0736531)
(11.3208 0.114388 0.0692515)
(11.2269 0.125657 0.0328673)
(11.1974 0.119627 0.0296147)
(11.2179 0.0935221 0.0378391)
(11.2207 0.112103 0.0364105)
(11.1968 0.110367 0.0290367)
(11.1067 0.115179 0.0306478)
(11.2994 0.077651 0.0675555)
(11.3121 0.0895516 0.0621672)
(11.1592 0.0663437 0.0220824)
(11.1639 0.0624346 0.0389507)
(11.0224 0.0876167 0.00748751)
(11.2107 0.0844623 0.0381547)
(11.1441 0.0588722 0.0302184)
(11.0635 0.053274 0.01219)
(8.48175 -0.133685 0.941688)
(8.0023 -0.0723473 0.660239)
(7.49827 -0.12152 0.519447)
(7.58835 0.0791434 0.292412)
(6.96212 -0.0225397 0.490648)
(8.15846 -0.159788 0.847488)
(7.17824 0.111186 0.551564)
(7.48009 -0.00556508 0.430386)
(8.52854 -0.119558 0.902546)
(7.34752 0.0455269 0.180129)
(7.09304 -0.0441756 0.328662)
(10.5631 -0.0248386 0.101479)
(10.5495 -0.00876723 0.0449999)
(10.5878 -0.000690442 0.0440785)
(10.5307 -0.0028322 0.130341)
(10.3026 -0.00287343 -0.00988231)
(10.5619 -0.0184961 0.19568)
(10.4935 -0.0145632 0.18716)
(10.4413 0.0333833 0.116202)
(10.4688 0.002451 0.0430336)
(10.355 0.0119963 0.119766)
(10.4046 0.00302845 0.0341217)
(10.09 -0.0523522 0.025705)
(10.0894 -0.05013 0.0206462)
(10.0938 -0.0526047 0.0301072)
(10.0928 -0.0519565 0.0228415)
(10.0307 -0.0439867 0.0164133)
(10.0449 -0.0489823 0.0167608)
(9.98928 -0.0567317 0.00936635)
(10.0153 -0.0515488 0.0141151)
(10.0554 -0.0543731 0.0262125)
(10.0224 -0.0577037 0.0218613)
(9.85774 -0.050569 0.00610237)
(9.94344 -0.0473913 0.00139239)
(9.99482 -0.0424323 0.0191441)
(10.0219 -0.0428605 0.0173498)
(9.93696 -0.0505859 0.0253988)
(10.8864 -0.0393524 1.16127)
(10.6341 0.00442929 1.09189)
(10.9489 0.0160375 0.95815)
(10.752 -0.0358909 0.931455)
(10.6224 -0.00711427 1.09426)
(10.8231 -0.0494675 0.461909)
(10.9361 -0.0744509 0.489664)
(11.0151 -0.126345 0.524056)
(11.0283 -0.103339 0.532471)
(11.1415 -0.203358 0.55532)
(11.1089 -0.207689 0.555217)
(11.1 -0.133012 0.538053)
(7.83794 2.35385 -0.0290707)
(7.41584 2.52501 -0.541628)
(8.78626 2.12292 -0.301956)
(8.63472 2.39164 -0.467855)
(7.9024 2.80048 -0.11501)
(7.37719 2.84828 -0.632652)
(7.98576 2.09632 -0.00765445)
(7.49899 2.20143 -0.634824)
(8.16409 2.83686 -1.29198)
(7.26678 2.9083 -1.37259)
(8.19352 1.98495 -0.108254)
(7.8761 1.99243 -0.710731)
(8.23934 2.51889 -1.22038)
(7.68335 2.48855 -1.05183)
(8.86761 2.03686 -0.309463)
(8.40587 2.27568 -1.14756)
(7.82379 2.24427 -0.989834)
(8.89325 2.07156 -0.513535)
(9.54343 1.90448 -0.349448)
(9.70648 1.74374 -0.425552)
(9.54303 1.79032 -0.646194)
(9.47224 1.87376 -0.740634)
(9.48293 1.61297 -0.639684)
(9.41191 1.90639 -0.734093)
(9.49012 1.75906 -0.216538)
(9.41783 1.92684 -0.269704)
(9.36438 2.02016 -0.606982)
(8.95068 1.85819 -0.551972)
(9.26115 1.54832 -0.466991)
(9.21297 1.72836 -0.264134)
(8.93308 2.05881 -0.222436)
(10.1403 2.94226 -0.973935)
(10.4885 2.49742 -0.910834)
(10.8703 1.86229 -0.380646)
(10.7868 1.77001 -0.383308)
(10.2942 2.2415 -0.882916)
(10.5067 2.2256 -0.800676)
(10.6259 1.97239 -0.532654)
(10.6013 1.90748 -0.534476)
(10.3888 2.93106 -0.817256)
(10.7148 2.64389 -0.681283)
(9.90803 2.59818 -0.908094)
(9.97565 2.68568 -0.89273)
(10.6397 2.37701 -0.313324)
(10.5531 2.18865 -0.289097)
(10.8603 2.10886 -0.374894)
(10.3297 1.95158 -0.610227)
(10.0251 2.40629 -0.560523)
(10.089 2.52854 -0.594038)
(10.3856 2.47504 -0.339777)
(10.37 2.35224 -0.362666)
(10.3153 2.6082 -0.511226)
(10.2377 2.29423 -0.435811)
(11.7779 -0.187604 0.308032)
(11.8732 -0.360082 0.350085)
(11.9212 -0.362807 0.355267)
(11.901 -0.336195 0.373993)
(11.935 -0.334262 0.395448)
(11.8709 -0.181839 0.36704)
(11.9177 -0.260311 0.379867)
(11.9506 -0.207004 0.416415)
(11.8398 -0.332907 0.323191)
(11.7993 -0.199741 0.31033)
(11.8911 -0.317893 0.372597)
(11.9052 -0.287289 0.354488)
(11.9577 -0.230395 0.422808)
(11.8576 -0.292763 0.31745)
(11.9294 -0.257742 0.406223)
(11.8562 -0.181712 0.365035)
(7.27623 -0.93069 0.425575)
(3.26834 -0.260798 0.379901)
(4.14105 -0.114346 0.0363629)
(2.82317 0.622186 0.108331)
(11.7602 0.200712 -1.21269)
(11.9182 0.341383 -1.65822)
(5.9993 0.449622 0.0325644)
(7.29154 0.159705 0.102217)
(12.234 -0.223121 -0.998117)
(12.2081 -0.219195 -1.2208)
(-0.720769 -0.406536 -1.44776)
(8.11391 -0.939873 -0.540228)
(7.41991 -0.492336 0.545402)
(6.24372 0.732751 0.155452)
(11.9099 0.247052 -0.856447)
(12.4443 0.023617 -0.793434)
(11.7608 0.0139082 0.177349)
(11.7797 0.0552771 0.17554)
(11.7581 0.00690692 0.152131)
(11.7337 0.00585683 0.11899)
(11.732 0.0283398 0.127986)
(11.7037 0.0126202 0.152039)
(11.7742 0.0294477 0.155411)
(11.7981 0.0340022 0.188087)
(11.7375 0.0537055 0.178104)
(11.7272 0.00302197 0.17437)
(11.7006 0.0229802 0.107733)
(11.7067 0.00381747 0.0836272)
(11.7056 0.00517235 0.125164)
(11.7058 0.00544545 0.167634)
(11.7166 0.00839154 0.0836975)
(11.7477 0.0144517 0.0938914)
(11.7848 0.011527 0.118349)
(11.7533 0.0234747 0.124665)
(9.64887 1.58858 -0.154806)
(9.32643 1.50813 0.598367)
(9.23128 1.87018 0.76556)
(9.61923 1.74101 0.106033)
(9.51025 1.88515 -0.0195191)
(9.13639 2.31986 0.218799)
(8.61917 2.52315 0.185646)
(9.27752 1.55763 -0.150396)
(9.43563 1.89481 0.524534)
(8.9253 1.74731 0.564503)
(8.77086 2.01112 0.607875)
(8.70768 2.48467 0.314492)
(9.20549 2.21676 0.477252)
(9.62617 1.61382 0.308454)
(9.5708 1.44801 0.303201)
(9.54027 1.49299 -0.0960663)
(10.5199 0.603957 -0.304455)
(10.5865 0.606548 -0.25765)
(10.5512 0.561745 -0.296771)
(10.5434 0.710792 -0.324413)
(10.6449 0.775033 -0.23545)
(10.5015 0.516678 -0.318127)
(10.4364 0.596011 -0.386658)
(10.4661 0.675194 -0.410276)
(10.52 0.687285 -0.396821)
(10.4625 0.691398 -0.44722)
(10.5171 0.696337 -0.386875)
(10.5781 0.692059 -0.41725)
(10.5302 0.687155 -0.463726)
(10.6297 0.70931 -0.365289)
(10.5774 0.686355 -0.362464)
(10.4431 0.569597 -0.355824)
(10.4087 0.598609 -0.414515)
(11.4543 -0.291971 0.726157)
(11.4729 -0.254233 0.699172)
(11.5334 -0.0790762 0.586694)
(11.5525 -0.0278839 0.593487)
(11.5291 -0.0261121 0.59232)
(11.5082 -0.0855314 0.575259)
(11.4601 -0.273736 0.786211)
(11.4542 -0.266787 0.812956)
(11.5352 0.0822083 0.725661)
(11.518 0.137212 0.863101)
(11.4216 -0.240343 0.642262)
(11.5032 -0.086167 0.578594)
(11.5258 0.0877408 0.721145)
(11.5194 0.100189 0.798931)
(11.3988 -0.219863 0.60041)
(11.5424 0.0590987 0.779199)
(11.476 -0.249283 0.745421)
(9.70832 -1.51364 -0.170857)
(9.86318 -1.56543 -0.139133)
(9.99818 -1.73535 -0.085569)
(9.74049 -1.82352 -0.247787)
(9.97356 -1.43898 -0.151841)
(9.63453 -1.7275 -0.250852)
(9.80028 -1.34521 -0.320782)
(9.66319 -1.41763 -0.391294)
(10.064 -1.54326 -0.137533)
(10.1733 -1.75081 -0.10356)
(10.1107 -1.76899 -0.0732743)
(9.85572 -1.99902 -0.359055)
(9.71235 -1.54954 -0.517101)
(9.92117 -1.64138 -0.500725)
(9.93768 -1.83106 -0.57224)
(9.99899 -1.48934 -0.29433)
(9.64458 -1.84999 -0.647438)
(9.74126 -1.93651 -0.689931)
(10.2483 -0.531185 0.0273454)
(10.3253 -0.484691 0.0713824)
(10.2946 -0.424528 0.0484519)
(10.2543 -0.345965 -0.0641307)
(10.1895 -0.426696 -0.0686203)
(10.2788 -0.310459 0.0155751)
(10.2178 -0.504688 0.0179672)
(10.2524 -0.426169 0.038908)
(10.2226 -0.3771 0.0192549)
(10.2524 -0.274872 0.00846321)
(10.2114 -0.344691 -0.0677229)
(10.1815 -0.353445 -0.0101565)
(10.2007 -0.295248 -0.038056)
(10.1747 -0.475401 -0.0312602)
(10.5436 -1.11828 0.25322)
(10.5055 -1.06919 0.262)
(10.7354 -1.22481 0.482259)
(10.8644 -0.976786 0.576078)
(10.8693 -1.20142 0.578399)
(10.8409 -1.25495 0.520754)
(10.6084 -1.27382 0.324007)
(10.5914 -1.07103 0.307213)
(10.5992 -0.986764 0.321186)
(10.7846 -1.30991 0.494123)
(10.8223 -1.28073 0.539109)
(10.6956 -1.29508 0.36983)
(10.6172 -1.08989 0.350305)
(10.6897 -0.86351 0.390586)
(10.7143 -0.874598 0.421665)
(10.7378 -1.25221 0.412396)
(10.8064 -0.958614 0.47824)
(10.8381 -1.18316 0.517422)
(10.5487 3.03602 -0.827606)
(10.9205 2.93901 -0.730248)
(10.9096 2.70319 -0.685113)
(10.3512 2.98459 -0.608803)
(10.6532 3.16862 -0.619946)
(11.2538 2.62095 -0.387002)
(11.0891 2.27542 -0.354715)
(10.9363 3.08408 -0.0797349)
(11.1391 2.89616 -0.0429201)
(10.4893 3.04137 -0.23341)
(10.982 2.25646 -0.321423)
(11.0049 3.23731 -0.246025)
(11.6075 0.603469 1.2985)
(11.5774 0.425613 1.07858)
(11.4611 0.429359 1.23658)
(11.5271 0.463386 1.05472)
(11.4973 0.637384 1.22865)
(11.5991 0.293261 1.25003)
(11.3982 0.486313 1.04576)
(11.4368 0.36865 1.00257)
(11.5161 0.336712 1.21444)
(11.5424 0.314729 0.902361)
(11.5638 0.218068 0.873637)
(11.5101 0.288632 0.785576)
(11.5162 0.286767 0.865618)
(11.5957 0.147227 1.01377)
(11.5332 0.22531 0.848985)
(11.568 0.194583 0.955705)
(10.5597 -0.566531 0.739549)
(10.569 -0.586424 0.855301)
(10.486 -0.528158 0.73273)
(10.5157 -0.561114 0.799151)
(10.4587 -0.790061 1.07465)
(10.4773 -1.07136 1.14267)
(10.1654 -0.996015 0.922416)
(10.3187 -0.691137 0.946103)
(10.3796 -0.706082 0.976165)
(10.4716 -0.55104 0.773251)
(10.4526 -0.540137 0.723731)
(10.5701 -0.779709 0.735418)
(10.2763 -1.1114 0.964419)
(10.3808 -0.62595 0.646737)
(10.3294 -0.780042 0.656404)
(10.3976 -0.818637 0.676557)
(11.6724 0.179554 0.315345)
(11.6993 0.197134 0.32679)
(11.744 0.173048 0.312225)
(11.665 0.179332 0.278776)
(11.5672 0.251802 0.334527)
(11.6828 0.0976904 0.306801)
(11.6478 0.0958448 0.303107)
(11.7563 0.249587 0.292232)
(11.6915 0.279738 0.334895)
(11.6871 0.238592 0.266316)
(11.5944 0.275952 0.30974)
(11.6416 0.224381 0.340008)
(11.6112 0.203012 0.330997)
(11.565 0.155597 0.354477)
(11.6185 0.140779 0.326437)
(11.72 0.110173 0.307009)
(11.7109 0.131974 0.29567)
(11.675 0.122929 0.318381)
(11.7159 0.19511 0.286007)
(10.1492 -0.106053 -0.277875)
(10.1374 -0.0987805 -0.259263)
(10.1379 -0.0862636 -0.199769)
(10.1495 -0.139854 -0.326658)
(10.1614 -0.113106 -0.282898)
(10.1276 -0.121107 -0.264075)
(10.1945 -0.158052 -0.3337)
(10.2035 -0.111747 -0.276555)
(10.1318 -0.112636 -0.23611)
(10.1859 -0.10491 -0.209294)
(10.1399 -0.133215 -0.28888)
(10.1843 -0.146775 -0.298464)
(10.1586 -0.12812 -0.237485)
(10.166 -0.141462 -0.263694)
(9.97427 -0.128097 -0.144082)
(9.98192 -0.115923 -0.136055)
(10.0009 -0.133448 -0.137869)
(9.97727 -0.152314 -0.148654)
(9.99457 -0.1144 -0.129354)
(9.99147 -0.170956 -0.169936)
(10.0297 -0.133907 -0.150753)
(10.0429 -0.0931884 -0.137194)
(10.0319 -0.103889 -0.147902)
(10.0754 -0.102002 -0.145289)
(10.0552 -0.100649 -0.139432)
(9.99165 -0.155308 -0.194495)
(10.0678 -0.113749 -0.163474)
(10.0603 -0.0971885 -0.146334)
(10.059 -0.111035 -0.161683)
(10.0692 -0.0961482 -0.133371)
(10.0567 -0.0911912 -0.130072)
(10.0648 -0.121457 -0.16774)
(11.9505 0.521319 0.0332515)
(12.0731 0.574654 -0.00922574)
(11.9822 0.710498 -0.141863)
(11.9265 0.245355 -0.0018216)
(11.9229 0.331638 0.013388)
(12.0979 0.418675 0.0266916)
(11.9514 0.365253 0.0603164)
(11.953 0.205256 0.0235805)
(11.9239 0.317375 0.0511463)
(12.0014 0.530227 -0.171627)
(12.0717 0.378509 -0.068429)
(9.31798 -1.10544 -1.44844)
(9.42303 -1.11058 -1.32487)
(9.46474 -1.13844 -1.38274)
(9.45474 -1.16582 -1.6134)
(9.35298 -0.953915 -1.82327)
(9.35397 -1.09034 -1.74693)
(9.04246 -0.926368 -2.09424)
(9.09905 -1.04919 -2.19566)
(9.36607 -1.13474 -1.45001)
(9.44848 -1.18966 -1.41253)
(9.4403 -1.28456 -1.49122)
(9.41927 -1.39718 -1.75777)
(9.39761 -1.43019 -2.00865)
(9.43352 -1.27167 -1.62298)
(9.46973 -1.32652 -1.9323)
(9.41394 -1.31745 -1.69547)
(9.08294 -1.01551 -2.26163)
(9.53148 -1.29232 -1.51346)
(9.35738 -1.41427 -1.82228)
(9.53106 -1.42916 -1.64622)
(9.19593 -1.19652 -1.79796)
(12.0263 -0.00800871 0.437566)
(12.0636 0.00956616 0.454171)
(11.9875 0.0737037 0.394627)
(12.0408 0.0517993 0.430951)
(11.9885 0.0381466 0.405776)
(12.0268 -0.0584021 0.469124)
(12.009 -0.0354299 0.449537)
(11.9863 0.00615083 0.437448)
(11.9545 0.029145 0.405363)
(11.9113 -0.0337144 0.425185)
(11.9085 -0.0820794 0.438719)
(11.8867 -0.0509378 0.433839)
(11.977 -0.0196195 0.432571)
(11.9145 -0.00431657 0.407243)
(11.8867 -0.0328332 0.413178)
(11.9169 -0.0463758 0.431455)
(11.8852 -0.00636123 0.402223)
(11.1352 -0.515029 1.1859)
(10.9947 -0.687084 1.23939)
(11.1186 -0.966423 1.38545)
(11.3937 -0.897904 1.7242)
(11.1869 -0.420087 1.17646)
(11.0814 -0.576693 1.26131)
(11.2573 -0.160276 1.32302)
(11.3481 -0.521048 1.70561)
(11.1932 -0.736191 1.28679)
(11.3181 -0.557929 1.58216)
(11.203 -0.186808 1.40086)
(10.3321 -0.119728 0.926011)
(10.2943 -0.11874 0.886546)
(10.2697 -0.112299 0.924076)
(9.8525 -0.187573 0.905865)
(10.0647 -0.152044 0.999547)
(9.53749 -0.205829 0.893375)
(9.29361 -0.23788 0.962014)
(9.50344 -0.27394 1.14061)
(9.62743 -0.214386 0.932097)
(9.91041 -0.187621 0.867354)
(9.24088 -0.376055 0.841373)
(9.53565 -0.270336 0.810481)
(9.17461 -0.321509 0.945466)
(10.2336 -0.0977306 -0.129193)
(10.2124 -0.0832144 -0.116572)
(10.231 -0.0843129 -0.0990079)
(10.2473 -0.0911626 -0.106477)
(10.2192 -0.0979114 -0.140121)
(10.2024 -0.0870037 -0.124847)
(10.2146 -0.0968349 -0.146555)
(10.1975 -0.0878116 -0.139136)
(10.2313 -0.0786566 -0.0895089)
(10.2493 -0.0900544 -0.103442)
(10.1883 -0.0749382 -0.104903)
(10.1979 -0.0770225 -0.106145)
(10.2553 -0.0914661 -0.0938588)
(10.1886 -0.0834425 -0.126187)
(10.2373 -0.0824169 -0.0810233)
(10.2174 -0.0729002 -0.0881738)
(10.1839 -0.0718856 -0.093125)
(10.1961 -0.0710115 -0.0889056)
(10.2068 -0.0697775 -0.0793214)
(10.2152 -0.077086 -0.0740545)
(10.2166 -0.0772803 -0.0857904)
(10.1876 -0.0730318 -0.0984504)
(10.6199 -0.345196 -0.471891)
(10.6311 -0.270391 -0.389261)
(10.5687 -0.253961 -0.533966)
(10.5794 -0.211158 -0.398006)
(10.5854 -0.258395 -0.352016)
(10.4972 -0.33222 -0.495574)
(10.5264 -0.237497 -0.544553)
(10.5328 -0.195299 -0.374699)
(10.4927 -0.205678 -0.449449)
(10.441 -0.297257 -0.453838)
(10.4425 -0.260634 -0.354308)
(10.4897 -0.284925 -0.378533)
(10.4731 -0.279376 -0.573623)
(10.5074 -0.197349 -0.373155)
(10.4654 -0.188681 -0.433712)
(10.423 -0.274321 -0.570557)
(10.4153 -0.21446 -0.486443)
(10.4302 -0.21396 -0.344245)
(10.5324 -0.233787 -0.341523)
(10.4895 -0.211462 -0.344274)
(11.2051 0.0545927 0.224193)
(11.2479 0.0493638 0.245133)
(11.3448 0.0690483 0.302726)
(11.3409 0.0943349 0.372628)
(11.1587 0.0343547 0.215697)
(11.2028 0.0366128 0.241193)
(11.2955 0.0701327 0.394448)
(11.2875 0.0661385 0.349776)
(11.2112 0.0208634 0.292284)
(11.1023 -0.00719438 0.373657)
(11.1483 0.0146151 0.326259)
(11.1185 0.0142572 0.240927)
(11.0713 -0.000351604 0.242627)
(11.1644 0.0226699 0.251407)
(11.1932 0.0238435 0.329391)
(11.1533 -0.00939839 0.402916)
(11.0518 -0.0311797 0.332547)
(11.1056 0.00645589 0.259525)
(11.2171 0.04543 0.361504)
(11.2073 0.0425193 0.416427)
(11.0993 0.00834032 0.352437)
(11.1689 0.0354023 0.40152)
(10.7208 -0.319922 1.43473)
(10.8149 -0.28548 1.58451)
(10.9493 -0.29049 0.883568)
(11.045 -0.263556 0.960516)
(10.8534 -0.389612 1.02111)
(10.9415 -0.443247 1.18212)
(10.7889 -0.343573 0.889711)
(10.7882 -0.407399 0.99236)
(10.7247 -0.360904 0.986005)
(10.709 -0.36521 1.30018)
(10.8138 -0.355962 1.39022)
(10.915 -0.281785 1.37092)
(11.0483 -0.281241 1.11909)
(10.9538 -0.267975 0.888974)
(10.8852 -0.267894 0.83938)
(10.8343 -0.307458 1.21769)
(10.9882 -0.227817 1.15414)
(11.2778 1.02576 0.267977)
(11.3041 1.10511 0.255722)
(11.3657 0.634637 0.418588)
(11.3307 0.782206 0.247406)
(11.349 0.667455 0.331152)
(11.4765 0.642164 0.359612)
(11.4291 0.566341 0.321651)
(11.3618 0.791716 0.139789)
(11.3338 0.7932 0.125499)
(11.3432 0.96116 0.0423595)
(11.4421 0.907908 0.0712118)
(11.4377 0.657275 0.302914)
(11.5574 1.06472 0.0693784)
(11.471 1.10048 0.0576603)
(10.8769 0.671192 -0.427331)
(10.8222 0.633663 -0.290347)
(10.7743 0.594319 -0.28915)
(10.8328 0.611826 -0.454945)
(10.7742 0.613992 -0.462706)
(10.8691 0.507874 -0.328473)
(10.818 0.456917 -0.302319)
(10.9021 0.552414 -0.339005)
(10.87 0.494231 -0.338702)
(10.808 0.456563 -0.31169)
(11.5521 -0.281206 0.662493)
(11.5158 -0.323408 0.654862)
(11.4445 -0.231625 0.654532)
(11.4491 -0.255315 0.628917)
(11.5457 -0.381155 0.73125)
(11.5809 -0.400198 0.78)
(11.4891 -0.263443 0.662388)
(11.5103 -0.200734 0.669648)
(11.5056 -0.364781 0.726713)
(11.4703 -0.171038 0.661613)
(11.4959 -0.206274 0.709698)
(11.5064 -0.165937 0.7273)
(11.4868 -0.1444 0.673182)
(11.5284 -0.288344 0.780831)
(11.5118 -0.135372 0.686129)
(11.528 -0.151168 0.732036)
(11.5616 -0.288393 0.803671)
(11.0618 -0.980899 -0.549948)
(10.9887 -0.969015 -0.487872)
(10.9074 -0.809045 -0.573208)
(10.7701 -0.766586 -0.641936)
(10.8598 -0.791773 -0.699577)
(10.9778 -0.79675 -0.634076)
(10.9429 -0.677645 -0.758402)
(10.9839 -0.68606 -0.779009)
(11.0018 -0.6563 -0.816579)
(10.9457 -0.65752 -0.81746)
(10.8993 -0.853138 -0.544985)
(11.0285 -0.908513 -0.619839)
(11.0576 -0.93874 -0.577829)
(11.089 -0.943407 -0.591367)
(10.8652 -0.771461 -0.717694)
(10.9537 -0.686731 -0.799427)
(10.828 -0.752909 -0.766514)
(11.0257 -0.851552 -0.691393)
(11.1092 -0.887724 -0.627362)
(11.0746 -0.831063 -0.713594)
(11.5919 -0.245784 0.486286)
(11.4562 -0.321738 0.495145)
(11.4317 -0.270042 0.476509)
(11.5394 -0.244241 0.487981)
(11.4658 -0.363817 0.512538)
(11.2494 -0.399765 0.516581)
(11.5195 -0.436576 0.48995)
(11.6737 -0.297899 0.430734)
(11.6275 -0.267993 0.467263)
(11.6122 -0.353243 0.453054)
(11.3713 -0.48927 0.437285)
(11.2626 -0.432622 0.508572)
(11.5782 -0.261451 0.47783)
(11.4185 -0.392659 0.480196)
(11.4483 -0.426166 0.449039)
(11.2776 -0.497142 0.46901)
(6.99554 -2.65192 -0.743456)
(6.83743 -2.29813 -0.994328)
(6.6012 -2.1046 -0.959248)
(6.99958 -2.65177 -0.891956)
(9.09503 -2.27736 -0.689263)
(8.17617 -1.95789 -0.68964)
(10.2499 -1.81787 0.0404149)
(9.51043 -2.07975 0.0560755)
(9.02128 -2.04205 -0.185667)
(9.03806 -1.85242 -0.260621)
(9.95017 -1.61491 -0.171959)
(9.28635 -1.83116 -0.139318)
(9.12985 -2.03255 -0.11409)
(11.989 0.242419 1.22914)
(12.0221 0.388719 1.26961)
(11.9153 0.256845 1.18756)
(11.736 0.103595 1.09013)
(11.7165 0.0639898 0.952878)
(11.8241 0.13868 1.05142)
(11.9786 0.508201 1.26616)
(11.7954 0.557737 0.966129)
(11.7242 0.302319 0.926473)
(11.7102 0.185421 1.05226)
(11.693 0.129375 0.868536)
(11.7781 0.651021 0.892748)
(11.5729 0.246726 -0.128853)
(11.5618 0.186069 -0.14886)
(11.5932 0.154569 -0.156894)
(11.6468 0.249022 -0.105461)
(11.6107 0.205277 -0.112217)
(11.64 0.187604 -0.125068)
(11.7309 0.218557 -0.128185)
(11.7897 0.213275 -0.135634)
(11.7279 0.158668 -0.135577)
(11.7058 0.157172 -0.140156)
(11.7345 0.371037 -0.20786)
(11.7939 0.358695 -0.205992)
(11.6808 0.33338 -0.230713)
(11.7179 0.316943 -0.213436)
(11.6181 0.339459 -0.238059)
(11.6491 0.26975 -0.163248)
(11.6744 0.217039 -0.111045)
(11.6909 0.344343 -0.208465)
(11.7072 0.238474 -0.140815)
(11.5284 -0.200989 1.05837)
(11.5577 -0.206558 1.1597)
(11.4528 -0.392591 0.980885)
(11.4743 -0.418754 0.99103)
(11.4669 -0.426118 0.955379)
(11.6439 -0.197746 0.937444)
(11.6268 -0.140754 1.05605)
(11.5558 -0.293345 1.15289)
(11.5241 -0.357457 0.986638)
(11.6773 -0.160983 0.88721)
(11.6797 -0.149794 0.829455)
(11.6557 -0.288205 1.16298)
(11.7427 -0.375721 0.827118)
(11.6742 -0.437662 0.868698)
(11.6955 -0.161418 0.827946)
(11.7529 -0.228979 0.875316)
(11.7369 -0.237822 0.799496)
(11.7017 -0.372796 0.911417)
(11.7247 -0.232765 0.818444)
(6.34069 -0.606809 -2.42986)
(6.73724 -0.694033 -2.57085)
(7.80999 -1.00178 -2.33364)
(7.17446 -1.01067 -2.30657)
(7.51666 -0.739298 -2.45416)
(7.62386 -0.750307 -2.4853)
(8.0335 -0.696221 -2.34346)
(8.10008 -0.765366 -2.16849)
(8.09209 -0.895642 -2.02067)
(8.59598 -0.737808 -2.18508)
(8.9472 -0.857275 -1.89673)
(8.8213 -0.874908 -1.89963)
(8.69679 -0.900118 -2.13025)
(8.659 -0.919488 -2.01696)
(8.88744 -0.928749 -1.94601)
(8.31903 -0.83141 -2.38416)
(11.0284 0.335192 -0.30672)
(10.9824 0.307717 -0.243952)
(11.0328 0.291336 -0.308471)
(11.0871 0.355242 -0.374828)
(11.0283 0.353276 -0.635796)
(10.9454 0.357404 -0.633484)
(10.9372 0.323844 -0.302997)