/*--------------------------------*- C++ -*----------------------------------*\
  =========                 |
  \\      /  F ield         | OpenFOAM: The Open Source CFD Toolbox
   \\    /   O peration     | Website:  https://openfoam.org
    \\  /    A nd           | Version:  10
     \\/     M anipulation  |
\*---------------------------------------------------------------------------*/
FoamFile
{
    format      ascii;
    class       volScalarField;
    location    "16";
    object      C;
}
// * * * * * * * * * * * * * * * * * * * * * * * * * * * * * * * * * * * * * //

dimensions      [1 3 0 0 0 0 0];

internalField   nonuniform List<scalar> 
75457
(
0.499993
0.499993
0.499995
0.499997
0.499996
0.499996
0.499995
0.499995
0.499999
0.499999
0.499999
0.499997
0.499997
0.499999
0.499932
0.499942
0.499969
0.49995
0.499948
0.499971
0.499955
0.499965
0.49994
0.49994
0.499965
0.499895
0.499892
0.494328
0.49312
0.494107
0.495001
0.492765
0.492844
0.496755
0.496705
0.497141
0.496824
0.492375
0.493135
0.496966
0.497185
0.496997
0.497104
0.497402
0.496148
0.4985
0.498489
0.497291
0.499952
0.49956
0.49952
0.499942
0.499927
0.499601
0.49976
0.499809
0.499828
0.499828
0.499962
0.499939
0.499902
0.499957
0.5
0.5
0.5
0.5
0.5
0.5
0.5
0.5
0.5
0.5
0.5
0.5
0.5
0.5
0.5
0.315235
0.333391
0.358149
0.31986
0.305169
0.315393
0.361668
0.325366
0.313319
0.366124
0.38621
0.332802
0.353724
0.265031
0.372199
0.33811
0.294012
0.5
0.5
0.5
0.5
0.5
0.5
0.5
0.5
0.5
0.5
0.5
0.5
0.5
0.5
0.5
0.5
0.5
0.5
0.5
0.5
0.5
0.5
0.5
0.5
0.5
0.5
0.5
0.5
0.5
0.5
0.5
0.5
0.5
0.5
0.5
0.5
0.5
0.5
0.5
0.5
0.5
0.5
0.5
0.5
0.5
0.5
0.5
0.5
0.5
0.5
0.5
0.5
0.5
0.5
0.5
0.5
0.5
0.5
0.5
0.5
0.5
0.5
0.5
0.5
0.5
0.5
0.5
0.5
0.5
0.5
0.5
0.5
0.5
0.5
0.5
0.5
0.5
0.5
0.5
0.5
0.5
0.5
0.5
0.5
0.5
0.5
0.5
0.5
0.5
0.5
0.5
0.5
0.5
0.5
0.5
0.5
0.499754
0.499685
0.499645
0.499423
0.499275
0.499356
0.5
0.5
0.5
0.5
0.5
0.5
0.5
0.5
0.5
0.5
0.5
0.499999
0.499999
0.499999
0.499999
0.499998
0.499999
0.499999
0.499998
0.499998
0.499999
0.499997
0.499999
0.499999
0.499999
0.5
0.5
0.5
0.5
0.5
0.5
0.5
0.5
0.5
0.5
0.5
0.5
0.5
0.5
0.499977
0.499966
0.499975
0.499985
0.499986
0.499973
0.499987
0.499975
0.499964
0.49998
0.49997
0.499988
0.499992
0.499966
0.499974
0.49999
0.499975
0.496595
0.496798
0.4967
0.496801
0.497658
0.497809
0.497951
0.498559
0.498527
0.498541
0.496509
0.497898
0.499036
0.49932
0.497523
0.499018
0.499332
0.49912
0.499051
0.499352
0.497394
0.49652
0.499039
0.496723
0.499054
0.5
0.5
0.5
0.5
0.5
0.5
0.5
0.5
0.5
0.5
0.5
0.5
0.5
0.5
0.5
0.486015
0.485864
0.484156
0.485004
0.486106
0.485655
0.485825
0.485857
0.485646
0.162947
0.167657
0.19077
0.18599
0.197054
0.198071
0.212893
0.217545
0.19335
0.211559
0.220092
0.192033
0.202464
0.359083
0.193293
0.152697
0.241784
0.309612
0.275146
0.313996
0.17811
0.147255
0.125756
0.142698
0.5
0.5
0.5
0.5
0.5
0.5
0.5
0.5
0.5
0.5
0.5
0.5
0.5
0.5
0.5
0.5
0.5
0.405045
0.410889
0.405507
0.428526
0.401339
0.395633
0.405111
0.385084
0.397177
0.428153
0.404323
0.491254
0.49398
0.493649
0.48931
0.493798
0.48011
0.480505
0.489375
0.493641
0.489454
0.493664
0.499382
0.499672
0.499246
0.499668
0.499677
0.499482
0.4993
0.499283
0.499236
0.499453
0.499509
0.499379
0.499676
0.499703
0.499602
0.408111
0.380965
0.382896
0.36493
0.364455
0.499974
0.499975
0.499929
0.499966
0.49984
0.499842
0.49996
0.5
0.5
0.5
0.5
0.5
0.5
0.5
0.5
0.5
0.5
0.5
0.5
0.5
0.5
0.5
0.5
0.5
0.5
0.5
0.5
0.5
0.5
0.5
0.5
0.5
0.5
0.5
0.5
0.5
0.5
0.5
0.5
0.5
0.5
0.5
0.5
0.5
0.5
0.5
0.5
0.5
0.5
0.5
0.5
0.5
0.5
0.5
0.5
0.5
0.5
0.5
0.5
0.5
0.499999
0.499991
0.49999
0.499991
0.49999
0.499999
0.499995
0.499998
0.499993
0.499999
0.499994
0.499994
0.499997
0.499995
0.499997
0.499999
0.499989
0.499923
0.4999
0.499891
0.499975
0.499969
0.499885
0.499896
0.499997
0.499997
0.499908
0.499988
0.49999
0.49989
0.499977
0.499997
0.5
0.5
0.5
0.5
0.5
0.5
0.5
0.5
0.5
0.5
0.5
0.5
0.5
0.5
0.5
0.5
0.5
0.5
0.5
0.5
0.5
0.5
0.5
0.5
0.5
0.5
0.5
0.5
0.5
0.5
0.5
0.5
0.5
0.5
0.5
0.5
0.5
0.5
0.5
0.5
0.5
0.5
0.5
0.5
0.5
0.5
0.5
0.5
0.5
0.5
0.5
0.5
0.5
0.5
0.5
0.5
0.5
0.5
0.5
0.5
0.5
0.5
0.5
0.5
0.5
0.5
0.5
0.5
0.491388
0.491809
0.492198
0.491034
0.490736
0.490962
0.48752
0.487525
0.490783
0.491678
0.492221
0.490974
0.485751
0.487298
0.487682
0.488041
0.487656
0.487715
0.498563
0.499144
0.499224
0.499601
0.498967
0.499582
0.498559
0.499103
0.499151
0.499581
0.499476
0.499088
0.499529
0.498528
0.496192
0.49649
0.495868
0.497023
0.495783
0.495736
0.495173
0.496391
0.496718
0.495387
0.495395
0.495187
0.496309
0.497383
0.497369
0.495288
0.497063
0.495736
0.5
0.5
0.5
0.5
0.5
0.5
0.5
0.5
0.5
0.5
0.5
0.5
0.49448
0.496944
0.493923
0.496771
0.494141
0.495369
0.494397
0.494496
0.494997
0.497609
0.497976
0.497787
0.497078
0.49702
0.497955
0.497109
0.498608
0.497622
0.49836
0.497711
0.496447
0.495867
0.493777
0.496651
0.496647
0.497713
0.498162
0.497918
0.493746
0.497786
0.497319
0.497207
0.5
0.5
0.5
0.5
0.5
0.5
0.5
0.5
0.5
0.5
0.5
0.5
0.5
0.5
0.5
0.5
0.5
0.5
0.5
0.499373
0.499351
0.499569
0.499146
0.499439
0.49925
0.499439
0.499678
0.499407
0.499793
0.499268
0.499572
0.499601
0.499614
0.492158
0.492463
0.494438
0.491958
0.49343
0.49412
0.497239
0.498026
0.497375
0.499171
0.498467
0.495675
0.498951
0.498723
0.498758
0.499144
0.498752
0.498846
0.499991
0.499984
0.499981
0.499997
0.499997
0.499986
0.499993
0.499997
0.499997
0.499984
0.499988
0.45516
0.455601
0.455343
0.45487
0.444944
0.433603
0.437876
0.423623
0.457224
0.458636
0.451824
0.435946
0.4352
0.438533
0.434239
0.434877
0.427798
0.457402
0.451001
0.454898
0.451936
0.49996
0.499963
0.499997
0.49999
0.499997
0.499964
0.499961
0.5
0.5
0.499999
0.499995
0.499999
0.5
0.499999
0.5
0.5
0.5
0.496499
0.496048
0.495528
0.493834
0.496531
0.496273
0.49329
0.493432
0.495835
0.493836
0.493955
0.45789
0.4581
0.458116
0.431973
0.453759
0.416364
0.408508
0.433972
0.45187
0.454241
0.425174
0.430706
0.430544
0.499961
0.49996
0.499981
0.499982
0.499952
0.499956
0.499938
0.499936
0.499986
0.499984
0.499956
0.499959
0.499989
0.499945
0.499991
0.499985
0.499961
0.499969
0.499986
0.499989
0.499986
0.499962
0.499926
0.499968
0.499854
0.499966
0.499976
0.499857
0.499833
0.499965
0.499898
0.499849
0.499928
0.499934
0.49972
0.499958
0.499896
0.499641
0.499787
0.499947
0.499976
0.499967
0.498989
0.497643
0.495732
0.496157
0.499043
0.497944
0.495871
0.495199
0.498748
0.49879
0.498906
0.499019
0.498933
0.497939
0.498884
0.498646
0.498829
0.497934
0.495334
0.495862
0.496348
0.495547
0.491768
0.492205
0.49721
0.496642
0.496665
0.495896
0.496787
0.496729
0.495616
0.492083
0.491471
0.492238
0.495771
0.496058
0.496827
0.492452
0.493345
0.498731
0.498724
0.499188
0.499214
0.499316
0.499362
0.499509
0.499236
0.499243
0.499039
0.499094
0.499434
0.498948
0.498873
0.5
0.5
0.5
0.5
0.5
0.5
0.5
0.5
0.5
0.5
0.499797
0.499802
0.499862
0.499877
0.49953
0.499367
0.499856
0.499903
0.49949
0.499841
0.499742
0.499742
0.499861
0.499344
0.499861
0.499733
0.499273
0.499331
0.49934
0.498996
0.498562
0.498498
0.498884
0.499182
0.499168
0.49881
0.498587
0.499053
0.499123
0.499459
0.499364
0.498859
0.498391
0.498008
0.499013
0.499353
0.499014
0.5
0.5
0.5
0.5
0.5
0.5
0.5
0.5
0.5
0.5
0.5
0.5
0.5
0.5
0.5
0.5
0.417385
0.415276
0.420745
0.425364
0.454804
0.442569
0.468191
0.447233
0.439322
0.443967
0.467871
0.447862
0.439176
0.496796
0.496592
0.497098
0.497759
0.498302
0.4978
0.496601
0.497608
0.498092
0.497778
0.498737
0.497728
0.5
0.5
0.5
0.5
0.5
0.5
0.5
0.5
0.5
0.5
0.5
0.5
0.5
0.5
0.5
0.5
0.5
0.5
0.5
0.494664
0.494408
0.496476
0.496472
0.496472
0.496692
0.496141
0.495296
0.496691
0.498448
0.49845
0.495624
0.498474
0.497954
0.498096
0.49884
0.498989
0.498041
0.498696
0.42478
0.425598
0.431976
0.428533
0.426327
0.426263
0.433476
0.438535
0.438709
0.436929
0.443868
0.445376
0.43621
0.440539
0.440652
0.430802
0.5
0.5
0.5
0.5
0.5
0.5
0.5
0.5
0.5
0.5
0.5
0.5
0.5
0.5
0.5
0.5
0.473869
0.452013
0.478867
0.455792
0.474015
0.440403
0.493067
0.482289
0.495057
0.495076
0.493095
0.481548
0.453709
0.432338
0.47415
0.492966
0.492737
0.49298
0.481634
0.446188
0.5
0.5
0.5
0.5
0.5
0.5
0.5
0.5
0.5
0.5
0.5
0.5
0.5
0.5
0.5
0.5
0.5
0.5
0.5
0.5
0.5
0.5
0.5
0.499999
0.499998
0.499999
0.5
0.499998
0.499998
0.499999
0.499998
0.499999
0.499999
0.499999
0.499999
0.499999
0.5
0.499999
0.5
0.499999
0.5
0.499999
0.5
0.5
0.5
0.499997
0.499997
0.499996
0.499997
0.499999
0.499999
0.499995
0.499995
0.499997
0.499997
0.499999
0.499996
0.499996
0.499999
0.499998
0.499999
0.499999
0.499999
0.499999
0.49963
0.498418
0.498693
0.499671
0.499531
0.49868
0.498587
0.499319
0.4991
0.498905
0.499684
0.499708
0.499214
0.499322
0.499272
0.499406
0.499994
0.499988
0.499988
0.499983
0.499995
0.499993
0.499983
0.499988
0.499995
0.5
0.5
0.5
0.5
0.5
0.5
0.5
0.5
0.5
0.5
0.5
0.5
0.5
0.5
0.5
0.5
0.5
0.5
0.5
0.5
0.5
0.5
0.5
0.5
0.5
0.5
0.5
0.5
0.5
0.5
0.5
0.5
0.499999
0.5
0.5
0.499999
0.5
0.499999
0.5
0.5
0.5
0.499999
0.5
0.5
0.5
0.5
0.5
0.499999
0.5
0.499999
0.499997
0.499999
0.499999
0.499998
0.499996
0.499985
0.49999
0.499997
0.499997
0.499996
0.499997
0.499989
0.499988
0.499992
0.499982
0.499982
0.499992
0.499991
0.499989
0.499746
0.49983
0.499651
0.49975
0.499705
0.499425
0.499375
0.4997
0.499422
0.499333
0.498541
0.498658
0.4988
0.499057
0.499491
0.498892
0.412002
0.409439
0.409427
0.402844
0.374981
0.38466
0.40296
0.377542
0.385886
0.5
0.5
0.5
0.499994
0.5
0.5
0.5
0.5
0.499994
0.499996
0.499999
0.499995
0.499997
0.499998
0.499989
0.499995
0.49999
0.499998
0.499998
0.499996
0.499988
0.49999
0.499992
0.499998
0.499989
0.499996
0.499998
0.499998
0.5
0.5
0.5
0.5
0.5
0.5
0.5
0.5
0.5
0.5
0.5
0.5
0.5
0.5
0.5
0.5
0.5
0.5
0.5
0.5
0.5
0.5
0.5
0.5
0.5
0.5
0.5
0.5
0.5
0.5
0.5
0.5
0.5
0.5
0.5
0.5
0.5
0.5
0.5
0.5
0.5
0.5
0.5
0.5
0.5
0.5
0.5
0.5
0.5
0.5
0.5
0.5
0.5
0.5
0.5
0.5
0.5
0.5
0.5
0.5
0.5
0.5
0.5
0.5
0.5
0.5
0.5
0.5
0.5
0.5
0.5
0.5
0.5
0.5
0.5
0.5
0.5
0.5
0.5
0.5
0.499936
0.499938
0.499928
0.499933
0.499896
0.499929
0.499938
0.499949
0.499935
0.499904
0.499931
0.499947
0.499959
0.499953
0.49996
0.499955
0.499946
0.499956
0.499965
0.5
0.5
0.5
0.5
0.498952
0.498859
0.499999
0.499999
0.499999
0.5
0.499999
0.5
0.5
0.499065
0.498104
0.499727
0.499997
0.499999
0.499997
0.499997
0.499218
0.499393
0.49875
0.499407
0.49915
0.498904
0.498837
0.497787
0.49931
0.499297
0.498818
0.499313
0.498186
0.498398
0.497827
0.499293
0.499178
0.499305
0.498481
0.344177
0.343539
0.357689
0.363118
0.34681
0.344612
0.335812
0.340859
0.338324
0.361332
0.371816
0.384252
0.384
0.354362
0.364811
0.373442
0.5
0.5
0.5
0.5
0.5
0.5
0.5
0.5
0.5
0.5
0.5
0.5
0.5
0.5
0.5
0.5
0.5
0.5
0.5
0.5
0.5
0.5
0.5
0.5
0.5
0.5
0.5
0.5
0.5
0.5
0.5
0.5
0.5
0.5
0.5
0.5
0.5
0.5
0.5
0.5
0.5
0.5
0.5
0.5
0.5
0.5
0.5
0.5
0.5
0.5
0.5
0.5
0.5
0.5
0.5
0.5
0.5
0.5
0.5
0.5
0.5
0.5
0.5
0.5
0.499999
0.499999
0.499999
0.499999
0.499999
0.5
0.5
0.5
0.5
0.5
0.5
0.5
0.5
0.5
0.5
0.5
0.5
0.5
0.5
0.5
0.5
0.5
0.5
0.5
0.5
0.5
0.5
0.5
0.5
0.5
0.5
0.5
0.5
0.5
0.5
0.5
0.5
0.5
0.5
0.5
0.5
0.5
0.5
0.5
0.5
0.5
0.5
0.5
0.5
0.5
0.5
0.5
0.5
0.5
0.5
0.5
0.5
0.5
0.5
0.5
0.5
0.5
0.5
0.5
0.5
0.5
0.5
0.5
0.5
0.5
0.5
0.5
0.5
0.5
0.5
0.5
0.5
0.5
0.5
0.5
0.5
0.5
0.5
0.5
0.5
0.5
0.5
0.5
0.5
0.5
0.5
0.5
0.5
0.5
0.5
0.5
0.5
0.5
0.5
0.5
0.5
0.5
0.5
0.5
0.5
0.5
0.5
0.5
0.5
0.5
0.5
0.5
0.5
0.5
0.5
0.5
0.5
0.5
0.5
0.5
0.5
0.5
0.5
0.5
0.5
0.5
0.5
0.5
0.499999
0.499996
0.499998
0.499982
0.499995
0.499995
0.499985
0.499982
0.499997
0.386383
0.385258
0.387204
0.389317
0.5
0.5
0.5
0.5
0.5
0.5
0.5
0.5
0.5
0.5
0.5
0.5
0.5
0.5
0.5
0.5
0.5
0.5
0.5
0.5
0.5
0.5
0.486785
0.493561
0.49334
0.486939
0.48657
0.49442
0.494614
0.493166
0.482299
0.491422
0.484856
0.486245
0.476071
0.478851
0.490835
0.492093
0.499999
0.499999
0.499999
0.499999
0.499993
0.499994
0.499997
0.499997
0.5
0.499997
0.499997
0.5
0.499998
0.499999
0.499994
0.499997
0.5
0.499999
0.499999
0.5
0.499999
0.499999
0.5
0.5
0.5
0.5
0.5
0.5
0.5
0.5
0.5
0.5
0.5
0.5
0.5
0.5
0.5
0.5
0.5
0.5
0.5
0.467307
0.466914
0.466377
0.475456
0.466989
0.466738
0.476253
0.467204
0.468399
0.475264
0.467152
0.456812
0.455864
0.456263
0.455759
0.464072
0.472907
0.473705
0.469002
0.470112
0.473598
0.462647
0.5
0.5
0.5
0.5
0.5
0.5
0.5
0.5
0.5
0.5
0.5
0.5
0.5
0.5
0.5
0.5
0.5
0.5
0.5
0.5
0.5
0.5
0.5
0.5
0.5
0.5
0.5
0.5
0.5
0.5
0.5
0.5
0.5
0.5
0.5
0.5
0.5
0.5
0.5
0.5
0.5
0.5
0.5
0.5
0.5
0.5
0.5
0.5
0.5
0.5
0.447182
0.438714
0.449862
0.438693
0.444501
0.460387
0.456101
0.46267
0.460658
0.47046
0.478641
0.478615
0.460582
0.472508
0.479773
0.470459
0.468835
0.498446
0.498304
0.499648
0.499656
0.49967
0.499696
0.498515
0.49867
0.498644
0.498631
0.49955
0.499423
0.498818
0.49967
0.499206
0.499293
0.499557
0.499457
0.499312
0.499619
0.499616
0.499405
0.494077
0.494523
0.495529
0.494965
0.49514
0.497133
0.497701
0.495293
0.495423
0.498697
0.498505
0.497942
0.497164
0.498412
0.498852
0.49849
0.497938
0.498849
0.448454
0.464246
0.471291
0.466125
0.473818
0.466345
0.444307
0.454657
0.462546
0.457076
0.47042
0.47058
0.460647
0.469317
0.436749
0.454635
0.455993
0.5
0.5
0.5
0.5
0.5
0.5
0.5
0.5
0.5
0.5
0.497428
0.498884
0.496238
0.496229
0.499721
0.499057
0.497114
0.496958
0.496995
0.497229
0.498009
0.49921
0.497473
0.499779
0.499513
0.49806
0.499216
0.499295
0.5
0.5
0.5
0.5
0.5
0.5
0.5
0.5
0.5
0.5
0.5
0.5
0.5
0.49937
0.499366
0.499349
0.499345
0.498493
0.499145
0.499135
0.499208
0.496966
0.496985
0.498274
0.498335
0.498707
0.498282
0.499486
0.499873
0.49872
0.499636
0.499917
0.499631
0.499015
0.499474
0.499805
0.499576
0.499803
0.499467
0.49933
0.499815
0.499023
0.264839
0.282278
0.262328
0.251439
0.289122
0.275199
0.27883
0.307908
0.239366
0.244232
0.267665
0.294327
0.304697
0.298169
0.287593
0.330621
0.321001
0.285814
0.5
0.5
0.5
0.5
0.5
0.5
0.5
0.5
0.5
0.5
0.5
0.5
0.5
0.5
0.5
0.5
0.5
0.5
0.5
0.5
0.5
0.5
0.5
0.5
0.5
0.5
0.5
0.5
0.5
0.5
0.5
0.5
0.345431
0.336316
0.338481
0.324821
0.325472
0.317694
0.323556
0.371327
0.402639
0.30812
0.300962
0.305429
0.361527
0.364248
0.397563
0.381003
0.369051
0.306081
0.5
0.5
0.5
0.5
0.5
0.5
0.5
0.5
0.5
0.5
0.5
0.5
0.5
0.5
0.5
0.5
0.5
0.5
0.5
0.499922
0.499919
0.499956
0.499948
0.499875
0.49987
0.499816
0.499799
0.499833
0.499839
0.499874
0.499891
0.499922
0.49992
0.499816
0.499812
0.499808
0.499873
0.5
0.5
0.5
0.5
0.5
0.5
0.5
0.5
0.5
0.5
0.5
0.5
0.5
0.5
0.5
0.5
0.5
0.5
0.5
0.5
0.5
0.5
0.5
0.5
0.5
0.5
0.5
0.5
0.5
0.5
0.5
0.5
0.5
0.5
0.5
0.5
0.5
0.5
0.5
0.5
0.5
0.5
0.5
0.5
0.5
0.5
0.5
0.5
0.5
0.5
0.5
0.5
0.5
0.5
0.5
0.5
0.5
0.5
0.5
0.5
0.5
0.5
0.5
0.5
0.5
0.5
0.5
0.5
0.5
0.5
0.5
0.5
0.5
0.5
0.5
0.5
0.5
0.5
0.5
0.5
0.499968
0.499965
0.499972
0.499992
0.499989
0.499984
0.49997
0.499984
0.49998
0.499987
0.499993
0.499975
0.499988
0.49999
0.499983
0.499954
0.499948
0.499938
0.499975
0.499957
0.49996
0.499948
0.499935
0.499967
0.499924
0.499971
0.499941
0.499959
0.499991
0.499995
0.499994
0.499985
0.49997
0.5
0.5
0.5
0.5
0.5
0.5
0.5
0.5
0.5
0.5
0.5
0.5
0.5
0.5
0.5
0.495111
0.495619
0.495897
0.495899
0.494568
0.495717
0.493728
0.492546
0.493529
0.5
0.5
0.5
0.5
0.5
0.5
0.5
0.5
0.5
0.5
0.5
0.5
0.5
0.5
0.5
0.5
0.5
0.5
0.5
0.5
0.5
0.5
0.5
0.5
0.5
0.5
0.5
0.5
0.5
0.5
0.5
0.5
0.5
0.5
0.5
0.5
0.5
0.5
0.5
0.5
0.5
0.5
0.5
0.5
0.5
0.5
0.5
0.5
0.5
0.5
0.5
0.5
0.5
0.5
0.5
0.5
0.5
0.5
0.5
0.5
0.5
0.5
0.5
0.5
0.5
0.5
0.5
0.5
0.499415
0.499366
0.499235
0.499311
0.499791
0.499646
0.499798
0.4998
0.499248
0.499877
0.499622
0.499441
0.499531
0.499941
0.49996
0.499647
0.499835
0.499782
0.499926
0.499961
0.499966
0.499959
0.499956
0.49964
0.499958
0.499817
0.499998
0.499998
0.499998
0.499998
0.5
0.5
0.5
0.499996
0.499996
0.499996
0.499996
0.499998
0.499997
0.499999
0.499999
0.499998
0.499998
0.499998
0.5
0.5
0.5
0.5
0.5
0.5
0.5
0.5
0.5
0.5
0.5
0.5
0.5
0.5
0.5
0.5
0.5
0.5
0.5
0.5
0.5
0.5
0.5
0.5
0.5
0.5
0.495417
0.496621
0.496148
0.495425
0.495846
0.496196
0.495614
0.495555
0.495479
0.495229
0.49529
0.495625
0.495217
0.498338
0.499432
0.499572
0.499384
0.499189
0.498323
0.498016
0.498431
0.49955
0.499266
0.499246
0.499189
0.499331
0.499304
0.499283
0.499579
0.499851
0.499783
0.499307
0.499458
0.499868
0.499884
0.499889
0.499889
0.499896
0.499774
0.499786
0.499156
0.499705
0.499794
0.499627
0.499993
0.499997
0.499991
0.499996
0.499994
0.499998
0.499994
0.499986
0.499994
0.499998
0.499996
0.499993
0.499995
0.499986
0.460701
0.459907
0.468792
0.473712
0.464034
0.465785
0.459023
0.460233
0.465665
0.464544
0.458651
0.5
0.5
0.5
0.5
0.5
0.5
0.5
0.5
0.5
0.5
0.5
0.5
0.5
0.5
0.5
0.5
0.5
0.5
0.5
0.5
0.5
0.5
0.5
0.5
0.5
0.5
0.5
0.5
0.5
0.5
0.5
0.5
0.5
0.5
0.5
0.5
0.5
0.5
0.5
0.5
0.5
0.5
0.5
0.5
0.5
0.5
0.5
0.5
0.5
0.5
0.5
0.5
0.5
0.5
0.5
0.5
0.5
0.5
0.5
0.5
0.5
0.5
0.5
0.5
0.5
0.5
0.5
0.5
0.5
0.5
0.5
0.5
0.5
0.5
0.5
0.5
0.5
0.5
0.5
0.5
0.5
0.5
0.5
0.5
0.5
0.5
0.5
0.5
0.5
0.5
0.5
0.5
0.5
0.5
0.5
0.5
0.5
0.5
0.5
0.499894
0.4999
0.499887
0.499888
0.499959
0.499935
0.499954
0.49991
0.499992
0.499992
0.499974
0.499992
0.499984
0.499973
0.499992
0.499992
0.499959
0.499974
0.495297
0.488394
0.494764
0.493826
0.494911
0.490443
0.497095
0.497411
0.490332
0.497233
0.493093
0.488142
0.493156
0.493038
0.492991
0.494414
0.497372
0.494622
0.492281
0.497253
0.489135
0.493106
0.495789
0.497254
0.493845
0.489344
0.489484
0.49974
0.499694
0.499736
0.499796
0.499487
0.492237
0.489537
0.491973
0.49686
0.486552
0.497978
0.488917
0.441349
0.451936
0.475634
0.449603
0.437259
0.481832
0.461487
0.49739
0.458657
0.460529
0.476407
0.470802
0.454034
0.484744
0.479846
0.45688
0.4523
0.481954
0.486502
0.465524
0.470321
0.485405
0.483227
0.463109
0.459921
0.474049
0.5
0.5
0.5
0.5
0.5
0.5
0.5
0.5
0.5
0.5
0.5
0.5
0.5
0.5
0.5
0.5
0.5
0.5
0.5
0.5
0.499976
0.499972
0.499983
0.499986
0.499986
0.499989
0.499986
0.499982
0.49997
0.499978
0.499987
0.499986
0.499986
0.499986
0.499981
0.5
0.499978
0.499973
0.5
0.499999
0.499954
0.499995
0.5
0.499983
0.499976
0.499953
0.5
0.499999
0.5
0.5
0.5
0.5
0.486833
0.478246
0.479046
0.460338
0.453083
0.471098
0.472779
0.494549
0.452492
0.473298
0.491892
0.490322
0.491931
0.489888
0.481131
0.495679
0.462396
0.473304
0.496235
0.490257
0.494819
0.497375
0.5
0.5
0.5
0.5
0.5
0.5
0.5
0.5
0.5
0.5
0.5
0.5
0.5
0.5
0.5
0.5
0.5
0.5
0.5
0.5
0.5
0.5
0.5
0.5
0.5
0.5
0.5
0.5
0.5
0.5
0.5
0.5
0.5
0.5
0.5
0.441583
0.423786
0.440835
0.415611
0.425463
0.423983
0.428248
0.451077
0.499999
0.499999
0.5
0.5
0.5
0.499999
0.499999
0.499998
0.5
0.5
0.499999
0.5
0.5
0.5
0.5
0.5
0.5
0.5
0.5
0.5
0.5
0.5
0.5
0.5
0.5
0.5
0.5
0.5
0.5
0.5
0.5
0.5
0.5
0.5
0.5
0.5
0.5
0.5
0.5
0.5
0.5
0.5
0.5
0.499999
0.5
0.5
0.499999
0.499999
0.499895
0.499929
0.499944
0.499965
0.499925
0.499949
0.49996
0.499963
0.499966
0.499971
0.499901
0.499967
0.499972
0.499968
0.49986
0.499904
0.49995
0.499962
0.499963
0.499967
0.499862
0.499962
0.5
0.5
0.5
0.5
0.5
0.5
0.5
0.5
0.5
0.5
0.5
0.5
0.5
0.5
0.5
0.5
0.411928
0.422724
0.424879
0.418712
0.411633
0.409756
0.426974
0.433181
0.43085
0.427216
0.441387
0.440766
0.417334
0.427567
0.423392
0.433252
0.413932
0.41175
0.499865
0.497094
0.497447
0.498987
0.498855
0.498767
0.496466
0.496742
0.499882
0.499881
0.498866
0.498771
0.499305
0.499774
0.499754
0.49973
0.5
0.5
0.5
0.5
0.5
0.5
0.5
0.5
0.5
0.5
0.5
0.5
0.5
0.5
0.5
0.5
0.5
0.5
0.5
0.5
0.499999
0.499999
0.499997
0.499998
0.5
0.5
0.5
0.5
0.499999
0.499999
0.5
0.5
0.5
0.5
0.5
0.5
0.498928
0.4989
0.49906
0.498877
0.499562
0.49892
0.499664
0.498921
0.499661
0.499879
0.499726
0.499832
0.499816
0.499777
0.499696
0.499784
0.499815
0.499572
0.499691
0.499901
0.499807
0.499851
0.49957
0.499676
0.499874
0.499901
0.499642
0.499743
0.499879
0.499998
0.499997
0.49999
0.499993
0.499993
0.499994
0.499995
0.499999
0.499997
0.499999
0.499998
0.499998
0.499996
0.499991
0.499991
0.499997
0.499995
0.499993
0.499956
0.499964
0.499981
0.499979
0.499961
0.499974
0.499952
0.499965
0.49997
0.5
0.5
0.5
0.5
0.5
0.5
0.5
0.5
0.499999
0.499998
0.499998
0.5
0.5
0.5
0.5
0.5
0.5
0.5
0.5
0.5
0.5
0.5
0.5
0.5
0.5
0.5
0.5
0.5
0.5
0.5
0.5
0.5
0.5
0.5
0.5
0.5
0.5
0.5
0.5
0.5
0.5
0.5
0.5
0.5
0.5
0.5
0.5
0.5
0.5
0.5
0.5
0.499654
0.499511
0.499432
0.499655
0.499898
0.499898
0.499918
0.499931
0.499564
0.499817
0.499881
0.499848
0.499892
0.499818
0.499862
0.5
0.5
0.5
0.5
0.5
0.5
0.5
0.5
0.5
0.5
0.5
0.5
0.5
0.5
0.5
0.5
0.5
0.479887
0.478366
0.480848
0.481913
0.491152
0.490825
0.484957
0.485088
0.49277
0.493732
0.480447
0.492259
0.493034
0.49065
0.493056
0.491296
0.492795
0.49353
0.494402
0.495156
0.495313
0.494042
0.488128
0.487016
0.476626
0.479339
0.478581
0.47262
0.4886
0.48808
0.486794
0.486092
0.488625
0.482754
0.474773
0.476276
0.476171
0.5
0.5
0.5
0.5
0.5
0.5
0.5
0.5
0.5
0.5
0.5
0.5
0.5
0.5
0.5
0.5
0.499875
0.499839
0.499935
0.499899
0.499872
0.499745
0.499775
0.499766
0.499826
0.499883
0.499907
0.499782
0.499943
0.499928
0.499771
0.499891
0.499887
0.499895
0.5
0.5
0.5
0.5
0.5
0.5
0.5
0.5
0.5
0.5
0.5
0.5
0.5
0.5
0.5
0.5
0.5
0.5
0.5
0.5
0.5
0.5
0.5
0.5
0.5
0.5
0.5
0.5
0.5
0.5
0.5
0.5
0.5
0.5
0.5
0.5
0.5
0.5
0.5
0.5
0.5
0.5
0.5
0.5
0.5
0.5
0.5
0.499875
0.499879
0.499878
0.499891
0.499318
0.499475
0.499571
0.499254
0.499275
0.499812
0.499745
0.499875
0.499885
0.499396
0.49972
0.499762
0.498224
0.498229
0.497297
0.497647
0.497657
0.49607
0.496047
0.493927
0.493961
0.497039
0.494756
0.494729
0.494101
0.5
0.5
0.5
0.5
0.5
0.5
0.5
0.5
0.5
0.5
0.5
0.5
0.5
0.5
0.5
0.499932
0.49995
0.499976
0.499945
0.5
0.5
0.5
0.5
0.5
0.5
0.5
0.5
0.5
0.5
0.499989
0.5
0.5
0.5
0.5
0.5
0.5
0.5
0.5
0.5
0.5
0.5
0.5
0.5
0.5
0.5
0.5
0.5
0.499819
0.499802
0.499725
0.499727
0.499839
0.49987
0.499801
0.499718
0.499706
0.499776
0.49964
0.499589
0.499834
0.499697
0.49958
0.499704
0.49965
0.499519
0.43511
0.430061
0.411293
0.41288
0.434435
0.429478
0.435143
0.410066
0.413532
0.417778
0.410708
0.412599
0.434553
0.432837
0.431148
0.423252
0.416596
0.412655
0.40576
0.412257
0.499975
0.499963
0.499975
0.499969
0.499977
0.495162
0.495152
0.495146
0.495129
0.497147
0.497156
0.497532
0.497642
0.49352
0.493975
0.494173
0.496062
0.497287
0.496377
0.499434
0.499442
0.499832
0.499849
0.499426
0.499432
0.499839
0.499816
0.499857
0.499607
0.49873
0.5
0.5
0.5
0.5
0.5
0.5
0.5
0.5
0.5
0.5
0.5
0.499844
0.499825
0.499851
0.499848
0.499855
0.499846
0.499824
0.499869
0.499849
0.499835
0.499839
0.499825
0.499924
0.499924
0.499876
0.5
0.5
0.5
0.5
0.5
0.5
0.5
0.5
0.5
0.5
0.5
0.5
0.5
0.5
0.5
0.5
0.5
0.5
0.5
0.5
0.5
0.499967
0.499967
0.499972
0.499972
0.499977
0.499982
0.5
0.5
0.5
0.5
0.5
0.5
0.5
0.499994
0.5
0.499998
0.499995
0.5
0.5
0.5
0.5
0.5
0.5
0.5
0.5
0.5
0.5
0.5
0.5
0.5
0.5
0.5
0.5
0.5
0.5
0.5
0.5
0.5
0.5
0.5
0.5
0.5
0.5
0.5
0.5
0.5
0.5
0.5
0.5
0.5
0.5
0.499997
0.499999
0.499998
0.499999
0.499995
0.499994
0.5
0.499994
0.499994
0.499999
0.499999
0.499994
0.499994
0.499999
0.5
0.5
0.5
0.5
0.5
0.5
0.5
0.5
0.5
0.5
0.5
0.499116
0.498979
0.497857
0.499439
0.498879
0.498487
0.498803
0.497981
0.497834
0.49846
0.498788
0.499121
0.498948
0.49943
0.498934
0.5
0.5
0.5
0.5
0.5
0.5
0.5
0.5
0.5
0.5
0.5
0.5
0.5
0.5
0.5
0.5
0.5
0.5
0.499898
0.499866
0.499926
0.499924
0.499935
0.499794
0.499739
0.499777
0.499935
0.499929
0.499866
0.499977
0.499962
0.499778
0.499846
0.499746
0.499754
0.499715
0.499979
0.499962
0.499977
0.5
0.5
0.5
0.5
0.5
0.5
0.5
0.5
0.5
0.5
0.5
0.5
0.5
0.5
0.5
0.5
0.5
0.5
0.5
0.5
0.5
0.5
0.5
0.5
0.5
0.5
0.5
0.5
0.5
0.5
0.5
0.5
0.5
0.5
0.5
0.5
0.5
0.5
0.5
0.5
0.37849
0.343017
0.396404
0.390203
0.325626
0.341345
0.331453
0.351929
0.346516
0.349725
0.322947
0.371889
0.317376
0.309629
0.282459
0.301326
0.333061
0.496183
0.495504
0.495841
0.496241
0.495116
0.493532
0.495048
0.493796
0.496167
0.494393
0.495047
0.492979
0.495407
0.493915
0.492588
0.5
0.5
0.5
0.5
0.5
0.5
0.5
0.5
0.5
0.5
0.5
0.5
0.5
0.5
0.5
0.5
0.5
0.5
0.5
0.5
0.5
0.5
0.5
0.5
0.5
0.5
0.5
0.5
0.5
0.5
0.5
0.5
0.5
0.5
0.5
0.5
0.5
0.5
0.5
0.5
0.5
0.5
0.5
0.5
0.499998
0.499958
0.499953
0.499951
0.499996
0.499987
0.499998
0.499996
0.499987
0.499991
0.499992
0.499991
0.499991
0.499991
0.499992
0.499981
0.499969
0.49997
0.499957
0.499958
0.499978
0.499979
0.499967
0.499989
0.49997
0.49997
0.499987
0.5
0.5
0.5
0.5
0.5
0.5
0.5
0.5
0.5
0.5
0.5
0.5
0.5
0.5
0.5
0.5
0.5
0.5
0.5
0.5
0.5
0.5
0.5
0.5
0.5
0.5
0.5
0.5
0.5
0.5
0.5
0.499985
0.499981
0.499971
0.499973
0.499969
0.499973
0.499984
0.499971
0.499977
0.499971
0.5
0.5
0.5
0.5
0.5
0.5
0.5
0.5
0.5
0.5
0.5
0.5
0.5
0.5
0.5
0.5
0.5
0.5
0.5
0.5
0.5
0.5
0.5
0.5
0.5
0.5
0.5
0.5
0.5
0.5
0.5
0.5
0.5
0.5
0.5
0.5
0.5
0.5
0.5
0.5
0.5
0.5
0.5
0.5
0.5
0.5
0.5
0.5
0.5
0.5
0.5
0.5
0.5
0.5
0.5
0.5
0.5
0.5
0.5
0.5
0.5
0.5
0.5
0.5
0.5
0.5
0.5
0.5
0.5
0.5
0.5
0.5
0.5
0.5
0.5
0.5
0.5
0.5
0.5
0.5
0.5
0.5
0.5
0.5
0.5
0.5
0.5
0.5
0.5
0.5
0.5
0.5
0.5
0.5
0.5
0.5
0.5
0.5
0.5
0.5
0.5
0.5
0.5
0.5
0.5
0.5
0.5
0.5
0.5
0.5
0.5
0.5
0.5
0.5
0.5
0.5
0.5
0.5
0.5
0.5
0.5
0.5
0.5
0.5
0.5
0.5
0.5
0.5
0.5
0.5
0.499998
0.499997
0.499992
0.499991
0.5
0.499997
0.5
0.499999
0.499998
0.5
0.5
0.5
0.5
0.5
0.5
0.5
0.5
0.5
0.5
0.5
0.5
0.5
0.5
0.5
0.5
0.5
0.5
0.5
0.5
0.5
0.5
0.5
0.5
0.5
0.5
0.5
0.5
0.5
0.5
0.5
0.5
0.5
0.5
0.5
0.5
0.5
0.5
0.5
0.5
0.5
0.5
0.5
0.5
0.5
0.5
0.5
0.5
0.5
0.5
0.5
0.5
0.5
0.5
0.5
0.5
0.5
0.5
0.5
0.5
0.5
0.5
0.5
0.5
0.5
0.5
0.5
0.5
0.5
0.5
0.5
0.5
0.5
0.5
0.5
0.5
0.5
0.5
0.5
0.5
0.5
0.5
0.5
0.5
0.5
0.5
0.5
0.5
0.5
0.5
0.5
0.5
0.5
0.5
0.5
0.5
0.5
0.5
0.5
0.5
0.5
0.5
0.5
0.5
0.5
0.5
0.5
0.5
0.5
0.5
0.5
0.5
0.5
0.5
0.5
0.5
0.5
0.499801
0.499819
0.499888
0.49991
0.499852
0.499953
0.499949
0.499893
0.499961
0.49995
0.499907
0.499904
0.499894
0.499857
0.49981
0.499837
0.499956
0.499896
0.499953
0.499953
0.49995
0.499861
0.499894
0.499819
0.499903
0.499919
0.499901
0.499922
0.499924
0.499906
0.499908
0.499928
0.499925
0.499917
0.499899
0.49991
0.499915
0.5
0.5
0.5
0.5
0.5
0.5
0.5
0.5
0.5
0.5
0.5
0.5
0.5
0.5
0.5
0.5
0.499999
0.499999
0.499999
0.499997
0.499998
0.499997
0.499998
0.499999
0.499999
0.499997
0.499996
0.499998
0.499996
0.499998
0.5
0.5
0.499999
0.499999
0.5
0.5
0.5
0.5
0.499999
0.499999
0.5
0.5
0.5
0.5
0.5
0.5
0.5
0.499999
0.499999
0.499999
0.499999
0.499998
0.499999
0.499999
0.499998
0.499998
0.499994
0.499996
0.499996
0.499996
0.499998
0.499998
0.499999
0.499999
0.499997
0.499998
0.499999
0.499998
0.499998
0.499998
0.5
0.5
0.5
0.5
0.5
0.5
0.5
0.5
0.5
0.5
0.5
0.5
0.5
0.5
0.5
0.5
0.5
0.5
0.5
0.5
0.5
0.5
0.5
0.5
0.5
0.5
0.5
0.5
0.5
0.5
0.5
0.5
0.5
0.5
0.5
0.5
0.5
0.433694
0.431507
0.435094
0.4217
0.418473
0.417449
0.409813
0.41025
0.407786
0.409483
0.414805
0.405703
0.472526
0.470647
0.49057
0.489994
0.45793
0.44947
0.494181
0.493878
0.494392
0.494393
0.494696
0.490611
0.491168
0.491443
0.330143
0.32266
0.378216
0.400647
0.442599
0.43916
0.445189
0.441108
0.44359
0.405198
0.424431
0.444558
0.435273
0.440069
0.418253
0.43845
0.443978
0.43774
0.141617
0.161571
0.190315
0.212593
0.199409
0.152028
0.22921
0.24876
0.238993
0.128731
0.131715
0.12373
0.153377
0.147482
0.147277
0.189879
0.204922
0.140819
0.5
0.5
0.5
0.5
0.5
0.5
0.5
0.5
0.5
0.5
0.5
0.5
0.499999
0.5
0.5
0.5
0.499998
0.499999
0.499998
0.499999
0.499999
0.499999
0.5
0.5
0.499998
0.499999
0.5
0.5
0.5
0.5
0.5
0.5
0.499999
0.5
0.5
0.5
0.499999
0.5
0.499999
0.5
0.5
0.499998
0.499998
0.5
0.499998
0.499977
0.499986
0.499986
0.499982
0.499977
0.499996
0.499996
0.499991
0.499999
0.499993
0.499992
0.499997
0.499998
0.5
0.5
0.5
0.499999
0.5
0.5
0.499999
0.5
0.5
0.5
0.5
0.5
0.5
0.5
0.5
0.34523
0.339979
0.344921
0.389288
0.391573
0.378736
0.381113
0.393232
0.392894
0.378428
0.401833
0.406918
0.420881
0.435166
0.474889
0.474498
0.434937
0.436607
0.41911
0.458559
0.459122
0.434849
0.419725
0.5
0.5
0.5
0.5
0.5
0.5
0.5
0.5
0.5
0.5
0.5
0.5
0.5
0.5
0.496891
0.493402
0.493534
0.491348
0.476048
0.483223
0.4723
0.49246
0.496511
0.497683
0.488265
0.476868
0.497641
0.490394
0.481823
0.489436
0.484933
0.485041
0.489683
0.494405
0.496206
0.489611
0.496761
0.49757
0.493534
0.492477
0.493392
0.497155
0.496335
0.493905
0.495009
0.495784
0.496789
0.496897
0.497165
0.498562
0.498301
0.497919
0.498408
0.497927
0.498514
0.498665
0.498897
0.498901
0.49791
0.498875
0.498045
0.498466
0.497912
0.493914
0.495362
0.494491
0.492176
0.486955
0.486993
0.493074
0.489421
0.490008
0.389708
0.389908
0.393625
0.376353
0.378521
0.38891
0.39063
0.391604
0.381564
0.384509
0.385262
0.384668
0.495417
0.495787
0.494812
0.494796
0.493904
0.495407
0.493627
0.493149
0.492504
0.494306
0.493355
0.493565
0.492742
0.493132
0.492759
0.492729
0.499999
0.499999
0.5
0.499999
0.499999
0.499999
0.5
0.5
0.499999
0.5
0.5
0.5
0.5
0.5
0.5
0.499999
0.5
0.5
0.488781
0.488659
0.492498
0.382002
0.499939
0.499817
0.499803
0.488469
0.49358
0.431355
0.271301
0.499144
0.487552
0.499992
0.5
0.5
0.5
0.5
0.5
0.5
0.5
0.5
0.5
0.499979
0.5
0.488784
0.5
0.492449
0.499853
0.49981
0.487687
0.487677
0.497735
0.487816
0.487841
0.495122
0.24847
0.370175
0.427006
0.486611
0.495218
0.329009
0.403223
0.499781
0.499785
0.342348
0.389004
0.485818
0.465149
0.0923529
0.5
0.499839
0.5
0.499881
0.499932
0.144104
0.5
0.177597
0.43162
0.499446
0.499987
0.499999
0.499999
0.499999
0.434917
0.467829
0.5
0.499999
0.395129
0.5
0.499999
0.383887
0.499997
0.499995
0.5
0.343476
0.499996
0.5
0.324669
0.5
0.497
0.5
0.5
0.5
0.5
0.5
0.5
0.49875
0.499998
0.499998
0.5
0.499995
0.5
0.499999
0.5
0.5
0.5
0.499992
0.5
0.5
0.480773
0.492395
0.5
0.5
0.5
0.499884
0.5
0.410651
0.499997
0.499994
0.484949
0.406811
0.5
0.499987
0.485499
0.402135
0.499982
0.5
0.5
0.48574
0.5
0.499981
0.499972
0.414228
0.5
0.5
0.5
0.5
0.470828
0.5
0.49984
0.44121
0.5
0.5
0.5
0.5
0.5
0.5
0.5
0.499948
0.5
0.499782
0.5
0.5
0.5
0.499855
0.5
0.5
0.499846
0.5
0.499825
0.5
0.5
0.499815
0.499998
0.5
0.5
0.5
0.5
0.5
0.5
0.5
0.5
0.5
0.5
0.5
0.5
0.5
0.5
0.5
0.5
0.5
0.5
0.5
0.5
0.5
0.5
0.5
0.5
0.5
0.5
0.5
0.5
0.5
0.5
0.5
0.5
0.5
0.5
0.5
0.5
0.5
0.5
0.5
0.5
0.5
0.5
0.5
0.5
0.5
0.5
0.5
0.5
0.5
0.5
0.5
0.5
0.5
0.5
0.5
0.5
0.5
0.5
0.5
0.5
0.5
0.5
0.5
0.5
0.5
0.5
0.5
0.5
0.5
0.5
0.5
0.5
0.5
0.5
0.5
0.499999
0.5
0.5
0.5
0.5
0.5
0.5
0.5
0.5
0.5
0.5
0.5
0.5
0.5
0.5
0.5
0.5
0.5
0.5
0.5
0.5
0.5
0.5
0.5
0.5
0.5
0.5
0.5
0.5
0.5
0.5
0.5
0.5
0.5
0.5
0.5
0.5
0.5
0.5
0.5
0.5
0.5
0.5
0.5
0.5
0.5
0.5
0.5
0.5
0.5
0.5
0.5
0.5
0.5
0.499975
0.499999
0.5
0.5
0.5
0.5
0.5
0.5
0.5
0.5
0.5
0.5
0.5
0.499999
0.5
0.499999
0.498501
0.498268
0.489803
0.5
0.5
0.5
0.5
0.5
0.5
0.5
0.5
0.5
0.499999
0.5
0.499999
0.499991
0.277082
0.278533
0.231799
0.5
0.5
0.5
0.5
0.5
0.5
0.5
0.499998
0.499999
0.499999
0.499999
0.499999
0.499999
0.499999
0.499944
0.499945
0.499964
0.498809
0.498185
0.496515
0.498699
0.497939