/*--------------------------------*- C++ -*----------------------------------*\
  =========                 |
  \\      /  F ield         | OpenFOAM: The Open Source CFD Toolbox
   \\    /   O peration     | Website:  https://openfoam.org
    \\  /    A nd           | Version:  10
     \\/     M anipulation  |
\*---------------------------------------------------------------------------*/
FoamFile
{
    format      ascii;
    class       volScalarField;
    location    "16";
    object      eff_dif;
}
// * * * * * * * * * * * * * * * * * * * * * * * * * * * * * * * * * * * * * //

dimensions      [0 2 -1 0 0 0 0];

internalField   nonuniform List<scalar> 
75457
(
-0.036678
-0.0331491
-0.0292851
-0.0265026
-0.0217043
-0.0233799
-0.0324676
-0.0323352
-0.020967
-0.015368
-0.0193231
-0.0211611
-0.0207887
-0.0183798
-0.0041761
-0.00462086
-0.00435398
-0.00455322
-0.0049665
-0.00449085
-0.00402144
-0.00466436
-0.00469084
-0.00499029
-0.00476433
-0.00513117
-0.00486302
-0.000870136
-0.000960761
-0.000413094
-8.66284e-05
-0.000297054
-0.000451123
-0.000586383
3.38752e-05
-0.000986493
-0.000866739
-0.00105401
-0.0011914
-0.000314022
-0.000572112
-0.000273632
-0.000744159
-0.0114626
-0.0115521
-0.0103629
-0.0105305
-0.0110772
-0.00593111
-0.00670287
-0.0070707
-0.00634473
-0.0064843
-0.00672154
-0.00708769
-0.00709953
-0.00688606
-0.00715414
-0.00632515
-0.00667686
-0.00653409
-0.00623766
0.0310729
0.0313421
0.0310808
0.0314151
0.031653
0.0316767
0.0313276
0.0313667
0.0316392
0.0314266
0.031154
0.0314165
0.0314046
0.0310838
0.0312934
-0.00965011
-0.0109332
-0.00914492
-0.0109104
-0.0128312
-0.0066215
-0.00697487
-0.00901224
-0.00979253
-0.00975563
-0.00956539
-0.00683258
-0.0079859
-0.00672099
-0.00674755
-0.00774798
-0.00686666
-0.0070359
-0.0071865
-0.00722054
-0.00756373
-0.00715977
-0.00699363
-0.00817069
-0.00739838
0.0317642
0.0316532
0.0319155
0.0319319
0.0317973
0.0316479
0.0315677
0.0320198
0.0320222
0.0316343
0.0316451
0.0223887
0.0230495
0.0255114
0.0250854
0.0224515
0.0240289
0.0240628
0.0235325
0.0238887
0.0255765
0.0253606
0.0259031
0.0264424
0.0251972
0.0246359
0.0234397
0.0258573
0.0248551
0.0139285
0.0138922
0.0133132
0.0141994
0.0137944
0.0153198
0.0150054
0.0148933
0.0148842
0.00802302
0.00756533
0.00813453
0.00767585
0.00710887
0.0076185
0.00764571
0.00669665
-0.00706307
-0.00710558
-0.00649809
-0.00669709
-0.00708726
-0.00673909
-0.00644699
-0.00595704
-0.00441745
-0.00446173
-0.00600341
-0.00572856
-0.00526238
-0.00596541
-0.0048423
0.0165069
0.0181065
0.0183479
0.017686
0.0181059
0.014392
0.0157775
0.0173374
0.0163453
0.017306
0.014629
0.0133156
0.0139077
-0.00945077
-0.00992126
-0.00979178
-0.00999921
-0.00976871
-0.00989981
-0.00922808
-0.0099255
-0.00976704
-0.0100089
-0.00999504
-0.0098337
-0.00975815
-0.00987604
-0.00870518
-0.0073273
-0.00981318
-0.00722719
-0.00754132
-0.00914003
0.0118939
0.0126622
0.0113177
0.0121062
0.0103199
0.0111182
0.013488
0.0131875
0.0123006
0.00956099
0.00953194
-0.00772798
-0.00757536
-0.00798807
-0.00794857
-0.00789516
-0.00782346
-0.0076636
-0.00753896
-0.00715153
-0.00797171
-0.00772207
-0.0075056
-0.00786007
-0.00747395
0.00639615
0.00547453
0.00585998
0.00419491
0.00473495
0.00545937
0.00534324
0.00658511
0.00615575
0.00525902
0.00464634
0.0040217
0.00622271
0.00466831
-0.0071576
-0.00722648
-0.00696427
-0.00693682
-0.00723149
-0.00716662
-0.00724384
-0.00720774
-0.0073699
-0.00693122
-0.00717057
-0.00666976
-0.00728814
-0.00734719
-0.00710516
-0.00707685
-0.00722674
-0.00986834
-0.00962345
-0.00962922
-0.00955296
-0.0107961
-0.00925341
-0.00920076
-0.00861065
-0.00948099
-0.00995017
-0.00898385
-0.00961819
-0.0113171
-0.0111206
-0.0111998
-0.0113806
-0.0106236
-0.0110271
-0.0113871
-0.011084
-0.0105913
-0.0113134
-0.0110457
-0.0108386
-0.010881
-0.00447826
-0.0042226
-0.00452693
-0.00395846
-0.00397913
-0.00385118
-0.00364754
-0.00360674
-0.00357226
-0.00407493
-0.00437059
-0.00425133
-0.00349928
-0.00393108
-0.00385864
-0.000444327
-0.000373825
-0.000228179
-0.000426939
-0.000210613
-0.000388998
-0.000618012
-0.000782804
-0.000155174
-8.67512e-05
6.98872e-05
-1.55194e-05
-0.000161007
0.000132509
0.000309126
0.000216759
4.76372e-05
9.66449e-05
0.000124327
7.52585e-05
-7.08277e-05
-0.000109586
-0.00505455
-0.00546632
-0.00449018
-0.00458935
-0.00485583
-0.00495764
-0.00550563
-0.00538947
-0.00569788
-0.00602925
-0.00558368
-0.00791828
-0.00807048
-0.00821128
-0.0082271
-0.00817973
-0.00788113
-0.00793144
-0.00831055
-0.0085801
-0.00824613
-0.00851014
-0.00758468
-0.00787353
-0.0080955
-0.008185
-0.00801469
-0.00814161
-0.0153763
-0.0142857
-0.01399
-0.0156058
-0.0179123
-0.0173824
-0.0172155
-0.017054
-0.0166714
-0.0163014
-0.0175554
-0.00432365
-0.00461988
-0.00541097
-0.00519093
-0.00481014
-0.00519828
-0.00474421
-0.00561899
-0.0053757
-0.00504441
-0.00467121
-0.00022767
-0.000127578
-0.000366933
-0.000447847
-0.000137027
-0.000121982
-0.000418709
-0.000159907
-0.000499086
-0.000572426
-0.000592742
-0.000232508
-0.000467744
-0.000943133
-0.000883734
-0.00612443
-0.00512355
-0.00700935
-0.00620263
-0.00608312
-0.00770213
-0.00805147
-0.0077244
-0.00801367
-0.00806753
-0.00773237
-0.00848381
0.0498723
0.0546463
0.0433025
0.0459344
0.0487283
0.0507703
0.0504361
0.0532626
0.0458809
0.0502805
0.0485302
0.0495315
0.0456357
0.0500841
0.0443768
0.0458499
0.0477572
0.0428195
0.0346828
0.0342233
0.0349784
0.0357074
0.0366007
0.0375654
0.0348994
0.0355311
0.037994
0.0414312
0.0381809
0.0383956
0.0401057
0.0260458
0.0232796
0.0207388
0.0223684
0.0269157
0.0236316
0.0221881
0.0235989
0.023277
0.0213819
0.0286014
0.0285886
0.0217627
0.0232937
0.0207692
0.0269126
0.0290313
0.029105
0.0251351
0.0251003
0.0257699
0.0270523
-0.00899332
-0.00934446
-0.00958383
-0.00956093
-0.00966139
-0.00906729
-0.00913564
-0.00927089
-0.0094195
-0.00907896
-0.00951666
-0.00908396
-0.00923623
-0.009176
-0.00933068
-0.00929615
-0.0269899
-0.0300977
-0.0160096
-0.0246422
-0.0143606
-0.0214261
-0.0196019
-0.0165485
-0.0143418
-0.0194928
-0.0341582
-0.0295062
-0.0189382
-0.0268152
-0.0147009
-0.0166117
0.00222473
0.00206776
0.00223019
0.00307391
0.00344628
0.0040569
0.0018738
0.00154501
0.00320675
0.00317899
0.00406321
0.0037114
0.00343875
0.00336417
0.00319955
0.00254349
0.00180778
0.00261896
0.0338202
0.0378763
0.036445
0.0330321
0.0343565
0.0371146
0.0406365
0.0397077
0.0346282
0.040596
0.0422956
0.0405552
0.0366832
0.0334525
0.0342439
0.035262
0.0269398
0.0262965
0.0267983
0.0265708
0.0257327
0.0275054
0.0280813
0.0274664
0.0268357
0.0277818
0.0272232
0.0264062
0.0272573
0.0256851
0.0263659
0.0278892
0.0283667
0.0125071
0.012355
0.0120719
0.0124369
0.0124309
0.012485
0.012577
0.0126467
0.0126775
0.0125296
0.0121713
0.0122457
0.0127477
0.012405
0.0125146
0.0118086
0.0118116
-0.00514843
-0.00610654
-0.00776429
-0.00690707
-0.00576575
-0.00600143
-0.00529615
-0.00535502
-0.00631878
-0.0059564
-0.00756912
-0.00784335
-0.00647335
-0.00503098
-0.00731639
-0.00630782
-0.00634667
-0.00717663
-0.00420666
-0.00428898
-0.00412094
-0.0040818
-0.00351825
-0.00378374
-0.00395587
-0.00395091
-0.00343511
-0.00364124
-0.00377427
-0.00341244
-0.00329323
-0.00367008
-0.00665892
-0.00616481
-0.00717817
-0.00795882
-0.00800006
-0.00742828
-0.00710105
-0.00687383
-0.00674279
-0.00789047
-0.00786283
-0.00770438
-0.00709664
-0.00657026
-0.00686573
-0.00764771
-0.0078207
-0.00798634
0.0214538
0.0172289
0.0180252
0.0247801
0.0211152
0.015267
0.0181648
0.0183412
0.0148433
0.0231672
0.0183235
0.0154732
-0.00891258
-0.00872425
-0.00838194
-0.008419
-0.00875251
-0.00840486
-0.00727705
-0.00763389
-0.00844641
-0.00856916
-0.00846757
-0.00764023
-0.00762834
-0.00819086
-0.00834563
-0.00811744
-0.00557286
-0.00611397
-0.00509945
-0.00547813
-0.00659997
-0.00655996
-0.00640409
-0.00522578
-0.0051525
-0.00514239
-0.00505717
-0.00619175
-0.00659933
-0.00523674
-0.00485062
-0.00596831
0.00483746
0.00407786
0.00341676
0.00663981
0.00752301
0.00509388
0.00580249
0.00258485
0.00414731
0.00485131
0.00642887
0.00534557
0.00639792
0.00721521
0.00694679
0.0038723
0.00398486
0.00526929
0.00337383
-0.00284143
-0.00188266
-0.00270906
-0.00436208
-0.00343078
-0.00234016
-0.0041293
-0.00367866
-0.00276929
-0.00313445
-0.00283664
-0.00412084
-0.00291061
-0.0025781
-0.00124261
-0.000983251
-0.00122338
-0.0017487
-0.00141122
-0.00154402
-0.00142551
-0.00133444
-0.00180231
-0.00121127
-0.00169436
-0.00138875
-0.00213552
-0.00110065
-0.00107275
-0.00125219
-0.001003
-0.00150392
-0.00360945
-0.00423113
-0.0032786
-0.00188952
-0.00236503
-0.0060464
-0.00353672
-0.00319068
-0.00321073
-0.00428594
-0.00572409
-0.00865728
-0.00894985
-0.00917067
-0.00886965
-0.00994534
-0.0104338
-0.0100009
-0.0109193
-0.00799319
-0.00769905
-0.0104067
-0.0114697
-0.0112175
-0.0102527
-0.00995828
-0.011296
-0.0100937
-0.00983932
-0.0105796
-0.010513
-0.00946439
-0.00967963
-0.00973662
-0.0094283
-0.00961834
-0.00938824
-0.00960145
-0.0096464
-0.00938581
-0.00920426
-0.0093768
-0.00959927
-0.00937388
-0.00943659
-0.00935481
-0.00947473
-0.00940461
-0.00939434
-0.00789441
-0.00838278
-0.00937338
-0.0093209
-0.00833768
-0.00881352
-0.00931464
-0.00935272
-0.00855307
-0.00911509
-0.00848408
-0.00444347
-0.00499784
-0.00333052
-0.00287268
-0.00331347
-0.00272659
-0.0029317
-0.00211604
-0.00313834
-0.00331894
-0.00299998
-0.00303435
-0.00259225
-0.00299823
-0.00279507
-0.0027296
-0.00306714
-0.00297785
-0.00237791
-0.00292158
-0.00269119
-0.00308554
-0.00305957
-0.00261805
-0.00263707
-0.00277681
-0.00238169
-0.00272742
-0.00254563
-0.00233786
-0.00260787
-0.00227859
-0.00254282
-0.00268752
-0.00236105
-0.00596669
-0.00619912
-0.00604972
-0.00601349
-0.00565214
-0.00517015
-0.00604571
-0.00489848
-0.00570762
-0.00453458
-0.00525535
-0.0056452
-0.0058243
-0.00541323
-0.00523567
-0.00663199
-0.00563058
-0.00505157
-0.00480674
-0.00478591
-0.0078226
-0.00805436
-0.00830323
-0.00821723
-0.00724872
-0.00751307
-0.00839628
-0.00834252
-0.0080207
-0.00694698
-0.00723181
-0.0071601
-0.00690961
-0.00760874
-0.00743606
-0.00786379
-0.00672865
-0.00705203
-0.00770159
-0.00785164
-0.00692061
-0.00718735
-0.0070602
-0.00807668
-0.0070824
-0.00781483
-0.00739464
-0.0086591
-0.00680866
-0.00661966
-0.00689881
-0.00751663
-0.00808255
-0.00765644
-0.00815197
-0.00718564
-0.00696323
-0.00732744
-0.00719633
-0.00713966
-0.00671833
-0.00792621
-0.00727183
-0.00809628
-0.00896176
-0.00845918
-0.00835299
-0.00780608
-0.0079288
-0.00882535
-0.00870856
-0.00934742
-0.00835528
0.0223209
0.022875
0.0238255
0.0227861
0.0235952
0.0223571
0.0233941
0.0222206
0.0227865
0.0237911
-0.00934965
-0.0091613
-0.00888819
-0.00894404
-0.00948439
-0.00944265
-0.00895832
-0.00910667
-0.00947795
-0.00885113
-0.00929797
-0.00908217
-0.00906414
-0.00950056
-0.00908477
-0.0093721
-0.00946024
-0.00957439
-0.00901665
-0.00992168
-0.00966064
-0.00940392
-0.0100949
-0.0088902
-0.00968774
-0.00885717
-0.00866585
-0.00965498
-0.00991672
-0.00873435
-0.00972984
-0.00977984
-0.00936091
-0.00902679
-0.0100369
-0.00932536
-0.00933663
0.0119422
0.012348
0.0130477
0.0124646
0.0121335
0.0132701
0.00982704
0.0114035
0.0116323
0.0112935
0.010586
0.0127009
0.0121708
0.0127089
0.0118193
0.0113863
-0.0128351
-0.0139602
-0.0130154
-0.0124276
-0.0126423
-0.0107024
-0.011297
-0.0121055
-0.0127299
-0.0133993
-0.00962187
-0.0109883
-0.012081
-0.0113969
-0.0124492
-0.0104557
-0.0101585
-0.0102001
-0.0112825
-0.0113574
-0.012071
-0.010389
-0.00986844
-0.00965182
-0.0107843
0.0124661
0.0114535
0.0110975
0.0111757
0.0112092
0.00974132
0.00942189
0.00884079
0.0088958
0.00945217
0.00957418
0.00866076
0.0103894
0.00950774
0.0112011
0.0113071
0.00937727
0.0104815
0.0100888
-0.00893607
-0.00895035
-0.00951327
-0.00894754
-0.0103709
-0.00917977
-0.00869659
-0.00934267
-0.00934787
-0.00899774
-0.0088748
-0.00959078
-0.00974212
-0.0102367
-0.0097266
-0.00909713
-0.00893755
-0.00987375
-0.009608
-0.00750359
-0.00857114
-0.0080878
-0.00793318
-0.00764064
-0.00820066
-0.00747818
-0.00711379
-0.00846344
-0.00804865
-0.00829484
-0.00783184
-0.00846459
-0.00837055
-0.00856415
-0.00850478
0.0215369
0.0220967
0.0214036
0.0212077
0.0224353
0.0233273
0.0231331
0.0221958
0.0222039
0.0230413
0.0232153
0.022288
0.0231732
0.023709
0.0243909
0.0238272
-0.0111174
-0.0129912
-0.0093616
-0.00919594
-0.0142114
-0.0170836
-0.00628671
-0.007332
-0.00998403
-0.0125333
-0.00943605
-0.0100898
-0.0116026
-0.0168458
-0.015105
-0.00784977
-0.0127853
-0.00979422
-0.0132483
-0.0156579
0.0583137
0.0523563
0.04803
0.0476947
0.0567909
0.0580852
0.0515918
0.0563997
0.0505833
0.0525812
0.0501611
0.0506105
0.0474264
0.0472914
0.0530101
0.0208377
0.0195305
0.0241614
0.0258551
0.0236931
0.0206216
0.0259792
0.0225324
0.0249926
0.028258
0.027199
0.0284277
0.0301517
0.0279674
-0.014194
-0.0149308
-0.0144782
-0.0152266
-0.0133399
-0.0136037
-0.0119799
-0.0108499
-0.0131732
-0.013119
-0.0113058
-0.0108414
-0.0136239
-0.0119142
-0.0115783
-0.0122129
-0.00540113
-0.00512187
-0.00518548
-0.00533182
-0.00511712
-0.00541895
-0.00507007
-0.00540605
-0.0055758
-0.00494072
-0.00499023
-0.00494766
-0.00551052
-0.00532529
-0.00501517
-0.00519711
-0.00514115
-0.00547429
-0.00528233
-0.00998229
-0.00998104
-0.00961237
-0.010358
-0.0104936
-0.0103558
-0.00966605
-0.0104274
-0.0103207
-0.00887972
-0.00950226
-0.00934687
-0.00979105
-0.00949378
-0.0106501
-0.0103438
-0.00903378
-0.00944771
-0.00920048
-0.00928684
-0.00894428
-0.00901788
-0.00948173
-0.00895214
-0.00906492
0.0305516
0.0297171
0.0297757
0.0302297
0.0304051
0.0300052
0.0297862
0.0298245
0.0305344
0.0303272
0.0303892
0.0301352
0.0302284
0.0300035
0.0303251
0.0303872
0.0304043
0.0301944
0.0298426
0.0304777
-0.00649272
-0.00730791
-0.00643153
-0.00695681
-0.00643898
-0.00611815
-0.0062727
-0.00704988
-0.00605166
-0.00636553
-0.00657782
-0.00676229
-0.00450216
-0.00458846
-0.00419151
-0.00405312
-0.00386338
-0.00456142
-0.0045526
-0.00468845
-0.00446057
-0.00403386
-0.0040163
-0.00432442
-0.00436137
-0.00400196
-0.00414423
-0.00408838
-0.0042634
-0.00412349
-0.00335515
-0.00316704
-0.00343983
-0.00316274
-0.003316
-0.00370219
-0.00376344
-0.00391827
-0.00398793
-0.00322448
-0.00369154
-0.00333639
-0.00402247
-0.00385874
-0.00352958
-0.00334832
-0.00404049
-0.00369447
-0.00329211
-0.00253355
-0.00261363
-0.00280858
-0.00203755
-0.00244741
-0.00214325
-0.00214106
-0.00298251
-0.00248433
-0.0030535
-0.00306422
-0.00216711
-0.00217324
-0.00234567
-0.00307445
-0.00306889
-0.00693217
-0.00696178
-0.00747078
-0.00752584
-0.00746926
-0.00690462
-0.00709098
-0.00796799
-0.00758437
-0.00934819
-0.0091053
-0.00919143
-0.00933484
-0.0094616
-0.00948074
-0.00931651
-0.00959201
-0.00927304
-0.00913216
-0.00946038
-0.00925691
-0.00430634
-0.0041505
-0.0043314
-0.00433254
-0.0042427
-0.00445066
-0.00439163
-0.00459756
-0.00457894
-0.00436738
-0.00484867
-0.00479133
-0.00474206
-0.0048453
-0.00465475
-0.00482707
0.0309089
0.0311091
0.0308492
0.0305841
0.0302279
0.0302892
0.0298246
0.0297681
0.0300466
0.0305871
-0.00779404
-0.00751248
-0.00774556
-0.00751612
-0.00788242
-0.00776134
-0.0080144
-0.00799468
-0.00824123
-0.00822089
-0.00796808
-0.00775551
-0.00797786
-0.00841155
-0.00833586
-0.00811752
-0.00802126
-0.00793061
-0.00521839
-0.00550745
-0.00513492
-0.00520803
-0.00514923
-0.00514356
-0.00536368
-0.00516362
-0.00530847
-0.00571829
-0.00548416
-0.0055307
-0.00530168
-0.0054809
-0.00507553
-0.00516693
-0.00536405
-0.00516184
0.00908064
0.00846311
0.00788837
0.0088615
0.00705534
0.00649282
0.00948632
0.00895998
0.00764939
0.0091727
0.00819748
0.0072816
0.00805301
0.00808695
0.0308474
0.0307463
0.0306231
0.0304509
0.0309003
0.0304904
0.0303097
0.0303441
0.0306524
0.0304679
0.0306436
0.0307683
0.0303377
0.0303051
0.0301943
0.0302363
0.0306164
0.0304116
0.0305592
0.0303255
0.0436007
0.0422447
0.0353988
0.038496
0.0280361
0.032375
0.0178585
0.0335982
0.0335722
0.0309428
0.0366919
0.0267989
0.0384497
0.0436121
0.0394055
0.0469298
0.0285327
0.0397862
0.0352806
-0.00912356
-0.00977963
-0.00601499
-0.00475612
-0.01014
-0.012632
-0.0124569
-0.0149544
-0.00572928
-0.00582924
-0.0170246
-0.0135255
-0.00785688
-0.0117936
-0.0137541
-0.00871955
-0.00902757
-0.0143489
-0.0112659
-0.0114247
-0.000986165
-0.00165217
-0.00150919
-0.00162734
-0.00199964
-0.00120817
-0.00256759
-0.00176309
-0.00188514
-0.00187017
-0.00171262
-0.00165759
-0.00242131
-0.00144494
-0.00256933
-0.00250912
-0.00233943
-0.0023022
-0.00149989
-0.0171997
-0.0175128
-0.0182417
-0.0174838
-0.0175963
-0.0180593
-0.0161631
-0.0175524
-0.0181903
-0.0156397
-0.0161024
-0.0161167
-0.0166183
-0.0173416
-0.0168175
-0.0171665
0.0325945
0.0325452
0.0324119
0.0324884
0.0327603
0.0327773
0.0326546
0.0326829
0.0324934
0.0323584
0.032876
0.0326521
0.0328168
0.0328121
0.0324379
0.0323595
0.0325265
0.0326964
0.0328275
0.0324243
0.00016836
1.77579e-05
0.000584013
0.00100342
-0.00194556
-0.00203236
-0.00246442
-0.00332725
-0.0012205
0.000180492
0.000557528
-0.00194978
-0.00229549
-0.00282686
-0.00356047
-0.00344412
-0.0011119
-0.00294055
-0.00269068
-0.00162586
0.0327453
0.0326329
0.032716
0.0327588
0.0327481
0.0327664
0.0326894
0.0328204
0.032884
0.0328916
0.0329587
0.0326676
0.0328355
0.0328044
0.0329146
0.0328971
0.0327826
-0.00580081
-0.00576092
-0.00587927
-0.00616906
-0.00607738
-0.00579261
-0.00556118
-0.00593164
-0.00604536
-0.00633046
-0.00562493
-0.00518352
0.0308227
0.0306392
0.0311872
0.0311901
0.0309468
0.0308919
0.030553
0.0307658
0.0309888
0.0311521
0.0311923
0.0308229
0.0306595
0.0307766
0.0305765
0.0307761
0.0305738
0.0308382
0.0309048
0.0305649
0.0308075
0.024398
0.0239612
0.0240563
0.0244722
0.0245121
0.0236777
0.024064
0.0257024
0.0258731
0.0256614
0.0249712
0.0246129
0.0242472
0.0241818
0.0242132
0.024897
0.0247908
0.0247905
0.00966544
0.0099245
0.0100042
0.0095907
0.00985265
0.0105547
0.0101933
0.0102334
0.00998345
0.0111381
0.0109656
0.0112124
0.011046
0.0101174
0.00984667
0.0508555
0.0457863
0.039964
0.0413863
0.0477212
0.0458044
0.0572487
0.0426376
0.0494972
0.0443973
0.0568219
0.0566185
0.0523418
0.0456164
-0.000730623
-0.000443922
-0.000907379
-0.00143675
-0.00133907
-0.00157904
-0.000804506
-0.000912304
-0.0011082
-0.000841337
-0.00161615
-0.00130402
-0.000990481
-0.000435123
-0.000640063
-0.00109982
0.0264729
0.0244224
0.026056
0.0242616
0.0239287
0.024316
0.0246393
0.0246934
0.025544
0.0259477
0.0283965
0.0278881
0.0269119
0.0292157
0.0298013
0.027225
0.0282568
0.0320129
0.031973
0.031571
0.0316703
0.0317734
0.031826
0.0320457
0.0320831
0.0315371
0.0316543
0.0319934
0.0320208
0.0319767
0.0318549
0.0318111
0.0319773
0.0317828
-0.0122485
-0.00991749
-0.00990935
-0.0132587
-0.00915106
-0.0143393
-0.0199072
-0.00923632
-0.0120783
-0.0126629
-0.0117799
-0.0118869
-0.0131437
-0.00977472
-0.015862
-0.0156823
-0.012717
-0.0138451
0.0191395
0.0188033
0.0204027
0.0200782
0.0193742
0.0180807
0.0184798
0.0200213
0.0205051
0.0201115
0.0198627
0.0201691
0.0184946
0.0182477
0.017617
0.0194074
0.0182897
0.0189032
0.0178749
0.019376
0.0186807
0.0184493
-0.00520687
-0.00537476
-0.00524284
-0.00513625
-0.00459408
-0.00466029
-0.00351244
-0.00385642
-0.0048736
-0.0056361
-0.00509674
-0.00510062
-0.00398209
-0.00424371
-0.00402703
-0.00399088
-0.00467106
-0.00523244
-0.00454694
-0.00462265
-0.00508688
-0.00491579
-0.00471645
-0.00502939
-0.00528898
-0.00510649
-0.00521392
-0.00440337
-0.00444649
-0.00434447
-0.0045306
-0.00450509
-0.00523101
-0.00519793
-0.00515029
-0.00483242
-0.004439
-0.00492368
-0.00496517
-0.00482652
-0.00487959
-0.00503779
-0.00526322
-0.00530594
-0.00481669
-0.00517232
-0.00481856
-0.0049622
-0.00471144
-0.00517143
-0.00440001
-0.00471688
-0.00451885
-0.00524191
-0.004875
-0.00452568
-0.00523272
-0.00628497
-0.00668909
-0.00655755
-0.00814406
-0.00497941
-0.00346149
-0.00744904
-0.0072422
-0.00178243
-0.00274538
2.7487e-05
-0.00366232
-0.000931412
-0.00402151
-0.00336717
-0.00572012
-0.00539859
-0.00357921
-0.00289882
0.000626771
-0.00178263
0.000215009
0.00760071
0.00601636
0.00536073
0.00583299
0.0064291
0.00800045
0.00787902
0.00685895
0.0061433
0.00531491
0.00570691
0.00584424
0.00549679
0.00652219
0.00637754
0.00745902
0.006252
0.00551797
0.00616588
-0.00747889
-0.00704953
-0.00726484
-0.007298
-0.00741846
-0.00746994
-0.0076537
-0.00794914
-0.0074803
-0.00803511
-0.00754767
-0.00739628
-0.00742592
-0.00736224
-0.0074163
-0.00738731
-0.00742843
-0.00351309
-0.00371198
-0.00514254
-0.00463127
-0.00444764
-0.00470463
-0.00493204
-0.00461009
-0.00400177
-0.00481936
-0.00419275
-0.00482501
-0.00450536
-0.00455161
-0.00462384
-0.00539933
-0.00546296
-0.00599803
-0.00469478
-0.00536376
-0.00431712
-0.00555218
-0.00531923
-0.00563763
-0.00567152
-0.00400662
-0.00514858
-0.0053562
-0.0050921
-0.00454718
-0.00564964
-0.000166312
-0.000474072
-0.000187878
-1.60008e-05
-0.000138208
-0.000221818
-0.000312467
-0.000327567
1.01438e-05
-0.000166782
-0.000402291
-0.000352078
-0.000514035
-0.000577846
-0.00013216
-0.000288194
-0.000656146
-0.000555187
-0.000542075
-0.000548111
-0.000248823
-6.03235e-05
-0.000669448
-6.74871e-05
-0.000289995
-0.000231952
-0.00049958
-0.000640905
-0.000290288
-0.000432523
-0.000247057
-9.48585e-05
-7.96179e-05
-0.000320939
-0.000611566
-0.000304871
-0.000287223
-0.000627367
-8.3586e-05
-0.000324832
-0.01254
-0.0132298
-0.0160763
-0.0168768
-0.0166518
-0.0175118
-0.01365
-0.014415
-0.014865
-0.011447
-0.0129742
-0.0137475
-0.0160525
-0.0153135
-0.0154973
-0.0141167
-0.0138722
0.000798131
0.000809054
0.000410486
0.00169835
0.00104981
0.000178085
-9.14692e-05
0.00176897
0.00147641
0.000515672
-0.0107284
-0.010678
-0.0112944
-0.0115853
-0.01052
-0.0104816
-0.0109819
-0.0115299
-0.0114825
-0.0109943
-0.0108482
-0.0106296
-0.0105806
-0.0103067
-0.0102634
-0.0107686
-0.0105084
-0.0105952
-0.00791584
-0.00791125
-0.0080535
-0.00775207
-0.00812602
-0.00774245
-0.00794551
-0.00767868
-0.00738429
-0.00742863
-0.00818562
-0.0082463
-0.00794468
-0.000695478
-0.00040262
-0.000820079
-0.000493649
-0.000980014
-0.00114032
-0.000820288
-0.000277651
-0.000201213
-0.000693123
-0.000976273
-0.000766098
-0.000245106
-0.000135488
-0.00977587
-0.00967621
-0.0102179
-0.00991741
-0.00971521
-0.00973735
-0.0101826
-0.0100012
-0.00993421
-0.0100523
-0.010021
-0.0103821
-0.0101117
-0.00974543
-0.0106921
-0.0199499
-0.0191529
-0.0188261
-0.0187322
-0.0179562
-0.0174968
-0.0206462
-0.019801
-0.0197363
-0.0202144
-0.0207033
-0.0204789
-0.0184937
-0.018195
-0.0187254
-0.0189589
-0.0190779
-0.0199986
0.0316431
0.0316391
0.0318946
0.0312416
0.0313559
0.0313169
0.0314254
0.031246
0.0315663
0.0315439
-0.00760278
-0.00766161
-0.00765778
-0.00788982
-0.00755663
-0.00786408
-0.00752423
-0.00760905
-0.00741507
-0.00749846
-0.00753755
-0.00782397
-0.007894
-0.00765622
-0.00790958
-0.00752141
-0.00764984
-0.00769243
-0.0075009
-0.00767021
-0.00773842
-0.00767469
-0.00479021
-0.00481215
-0.00502227
-0.00516232
-0.00436766
-0.00439743
-0.00509804
-0.00487011
-0.004998
-0.00461701
-0.00423902
-0.00443407
-0.005085
-0.00437914
-0.00450486
-0.00462779
-0.00488455
-0.00415242
0.0333021
0.0342713
0.0355364
0.0342312
0.0328075
0.0352868
0.0334655
0.0344113
0.0307235
0.0325901
0.0341608
0.0313451
0.0316729
0.0304285
0.0291527
0.0322596
0.0300671
0.0289352
0.0300087
0.0336968
0.0315337
0.0305766
0.0279837
0.0333024
0.0340371
0.0354671
0.0349084
0.0393588
0.0385824
0.0357689
0.0383699
0.0315692
0.0308265
0.0392101
0.0402308
0.0368055
0.039515
0.0326163
0.032731
0.0327875
0.032599
0.0327051
0.0325985
0.0327743
0.0327245
0.0325727
0.0327017
0.0325187
0.0325555
0.0327755
0.0327139
0.0327169
0.0327744
0.0321765
0.0280163
0.027595
0.0299437
0.0310496
0.0328916
0.0308436
0.0309329
0.0272467
0.0265718
0.0312648
0.0291041
0.0306726
0.0279026
0.029994
0.0277436
0.0274863
0.0287789
0.0293536
0.028228
0.0289085
0.0300317
0.0298702
0.0291494
0.0284129
0.030048
0.0304518
0.0299486
0.0247184
0.0242681
0.0265086
0.0278797
0.0160048
0.0149984
0.0250901
0.024935
0.0157386
0.0179604
0.0205017
0.0204306
0.0221337
0.0196161
0.0171804
0.015074
0.0305126
0.0296721
0.0300318
0.030546
0.0297475
0.031069
0.0306657
0.0298681
0.0298853
0.0327286
0.0322972
0.0319773
0.0314267
0.0303079
0.0314412
0.0308775
0.0319348
0.0313215
0.0306671
0.032217
0.0104942
0.0123451
0.0070444
0.00412989
0.00531651
0.00810511
0.0154896
0.00714635
0.0109974
0.0109486
0.00471919
0.00970567
0.0104261
0.00736221
0.0103314
0.0168878
0.0169553
0.0154382
0.0134505
0.011792
0.0207552
0.0178702
0.0179491
0.0151324
0.019078
0.0191545
0.0191796
0.0165458
0.0151031
0.0161692
0.0162811
0.0170571
0.0173875
0.0319034
0.0319499
0.0317587
0.0316533
0.0323202
0.0322931
0.0318616
0.0317023
0.032472
0.0324799
0.0319183
0.0322041
0.0324619
0.0324276
0.0323232
-0.00996868
-0.00978184
-0.0102228
-0.0101031
-0.0105753
-0.00964642
-0.00956653
-0.0112972
-0.0109046
0.0342662
0.0333925
0.0323849
0.0323289
0.033068
0.0324469
0.0346802
0.032139
0.0359022
0.0344603
0.0322507
0.0341074
0.0347452
0.0351062
0.0355708
0.0313599
0.031667
0.0334455
0.0356103
0.034281
0.0318514
0.0327271
0.00657895
0.00728016
0.00662094
0.00470786
0.00572553
0.00663176
0.00352623
0.00477634
0.00508143
0.00299002
0.004181
0.00219401
0.00302223
0.00193258
0.00149561
0.00228443
0.00349891
0.00506815
0.00117444
0.00396598
0.0307038
0.0290217
0.0337443
0.029219
0.0311065
0.0375357
0.0348001
0.0309858
0.0347209
0.0303176
0.032766
0.0386244
0.0364521
0.0371793
0.040598
0.03393
0.0332006
0.0314747
0.0359567
0.0299402
0.0331304
0.0308418
0.0347349
0.0391482
0.0400446
0.0381541
-0.00828074
-0.00918972
-0.00874068
-0.00834322
-0.0083622
-0.00906328
-0.00865597
-0.00823222
-0.00969187
-0.00809278
-0.00837882
-0.0092248
-0.00841035
-0.00811389
-0.00799613
-0.00821647
-0.0084051
-0.00920134
-0.00847872
-0.00784074
-0.00783658
-0.00778716
-0.00771722
-0.00834781
-0.00792804
-0.00832194
-0.00477457
-0.00454382
-0.00519767
-0.00564049
-0.00467994
-0.00490148
-0.00457628
-0.00340241
-0.00526513
-0.00274902
-0.00524342
-0.0041844
-0.00368292
-0.00438707
-0.00526851
-0.00521551
-0.00456938
-0.00446516
0.0127092
0.0122067
0.00877416
0.0107813
0.009424
0.00746344
0.0042001
0.00889918
0.0091668
0.00674898
0.00186347
0.00561663
0.0070241
0.0280227
0.0288096
0.0291515
0.0277874
0.0294497
0.0292267
0.0296157
0.028755
0.0288838
0.0278741
0.0280588
0.029946
0.0293139
-0.0113255
-0.0111847
-0.012146
-0.0114249
-0.0115009
-0.0121477
-0.0134035
-0.0128952
-0.0143104
-0.0122518
-0.0124038
-0.0120211
-0.0134526
-0.0114041
-0.010036
-0.00977116
-0.0102575
-0.0107192
-0.0110789
-0.0111733
-0.0113919
-0.0100908
-0.0102673
-0.0106253
-0.0101162
-0.00973961
-0.0103113
-0.0101362
-0.00944862
-0.00893456
-0.00922781
-0.00947412
-0.00946481
-0.00908892
-0.0088324
-0.00884008
-0.00857472
-0.00893863
-0.00912707
-0.00930097
-0.00946273
-0.00919486
-0.00878206
-0.00906888
-0.00807483
-0.00773472
-0.00777688
-0.00764521
-0.00768285
-0.00758744
-0.00760961
-0.00794728
-0.00768444
-0.00759824
-0.00776713
-0.00773955
-0.00773278
-0.00826449
-0.00504794
-0.00671935
-0.0068681
-0.00522782
-0.00635881
-0.00644304
-0.00714813
-0.00472625
-0.00468626
-0.00541237
-0.00544045
0.0255262
0.0271203
0.0262078
0.0273274
0.0265795
0.0274824
0.0265905
0.0258356
0.0269489
0.0260619
0.0274545
0.0252389
0.0267791
0.0355231
0.0383659
0.0407018
0.0490061
0.0468143
0.0353148
0.0524126
0.0516007
0.0387285
0.0443751
0.036898
0.0390955
0.0473225
0.0512245
0.0540255
0.0423891
0.0442316
0.0409308
0.0506368
0.0486083
0.0468118
0.0438226
0.0362308
0.0362552
0.0361872
0.0349088
0.0346416
0.0333706
0.0337861
0.0342691
0.0335644
0.0325601
0.0326545
0.0225062
0.0218387
0.0215422
0.0211326
0.023627
0.0231155
0.0214
0.0228274
0.021997
0.0210761
0.0202941
0.0205741
0.022304
0.0237114
0.0239007
0.021091
0.0205413
0.0228573
0.0199805
0.0341045
0.0343941
0.0342745
0.0342689
0.0350128
0.0348444
0.034628
0.0344545
0.0344515
0.0348552
0.0356142
0.0353161
0.0357513
-0.00680302
-0.00265776
-0.000185788
-0.00403982
-0.00207489
0.00183193
0.00165641
0.00219194
0.00306028
-0.00137221
0.000952422
-0.00684811
-0.0101284
-0.00147048
0.00179082
-0.00464133
-0.00225147
-0.0104608
-0.00553267
-0.0111955
-0.00423763
-0.00822179
-0.00809928
-0.00801678
-0.00819978
-0.00787364
-0.00800286
-0.00797406
-0.00836793
-0.00789621
-0.00765618
-0.00822903
-0.00800289
-0.00795779
-0.00785832
-0.00795181
-0.00798004
-0.00763796
-0.00777368
-0.0100814
-0.0116123
-0.00920038
-0.00956161
-0.00876703
-0.0108256
-0.00958881
-0.00959246
-0.00946863
-0.00964051
-0.0107571
-0.0129709
-0.01064
-0.0105198
-0.00975838
-0.0077972
-0.00887694
-0.00865291
-0.00825298
-0.00926926
-0.0110105
-0.00898285
-0.00716953
-0.0078783
-0.0075925
-0.00958814
-0.00808619
-0.00330285
-0.00369005
-0.00393742
-0.00389418
-0.00427735
-0.0113872
-0.0134614
-0.0121479
-0.0135532
-0.0180407
-0.0113862
-0.0151888
-0.0184408
-0.0177633
-0.0224036
-0.0238428
-0.0202891
-0.0198054
-0.0205927
-0.0157144
-0.00160475
-0.0015387
-0.00209896
-0.00283639
-0.00221007
-0.00219452
-0.00235012
-0.0020642
-0.00199698
-0.00153526
-0.000894508
-0.00232917
-0.0021178
-0.00146306
-0.000128189
-0.00133679
-0.00196054
-0.00145462
0.0181469
0.0161253
0.0119737
0.0190858
0.00587106
-0.00456175
0.0184379
0.00866657
0.0174642
0.0114357
0.0127391
-0.0173156
-0.0099372
-0.02848
0.00649994
0.00590863
0.00301638
-0.00706395
0.000148005
0.00542737
-0.0174211
-0.0170011
-0.0170729
-0.0155476
-0.0159398
-0.0148002
-0.014667
-0.0144804
-0.0158848
-0.0161062
-0.0140936
-0.0147622
-0.0152721
-0.014356
-0.0100517
-0.00839437
-0.00906285
-0.0107441
-0.00656949
-0.00726479
-0.00864119
-0.0109437
-0.00849717
-0.00805236
-0.0108109
-0.00958617
-0.00582155
-0.00649918
-0.00578189
-0.00634254
-0.00641481
-0.00666237
-0.00459511
-0.00563597
-0.00482094
-0.00736632
-0.0106879
-0.00590524
-0.0116813
-0.0098625
-0.0116638
-0.0110076
-0.00163723
-0.00213883
-0.00199054
-0.00400904
-0.00618498
-0.00668432
-0.00852497
-0.00861134
-0.00331807
-0.00634037
-0.00383219
-0.00394961
-0.000640843
-0.00228639
-0.00253359
-0.00219547
0.0011504
0.000945946
-5.87838e-05
0.00291208
0.00294249
-0.000497132
-0.00272844
0.000148095
0.00125449
0.00275138
0.00331005
-0.00114876
0.00125836
0.000950583
-0.000505444
0.000690671
0.0139946
0.0146212
0.0116973
0.0121062
0.0146905
0.0128348
0.0123572
0.0129734
0.0134697
0.0129628
0.011915