/*--------------------------------*- C++ -*----------------------------------*\
  =========                 |
  \\      /  F ield         | OpenFOAM: The Open Source CFD Toolbox
   \\    /   O peration     | Website:  https://openfoam.org
    \\  /    A nd           | Version:  10
     \\/     M anipulation  |
\*---------------------------------------------------------------------------*/
FoamFile
{
    format      ascii;
    class       volScalarField;
    location    "16";
    object      k;
}
// * * * * * * * * * * * * * * * * * * * * * * * * * * * * * * * * * * * * * //

dimensions      [0 2 -2 0 0 0 0];

internalField   nonuniform List<scalar> 
75457
(
1.95063
2.21839
1.34119
0.676981
1.42135
1.60313
1.73228
1.58161
0.481774
0.471878
0.420015
1.21849
1.05847
0.499329
0.0847704
0.0699676
0.0169018
0.0496797
0.059109
0.010125
0.0283302
0.0189877
0.0797894
0.0813558
0.048367
0.0996459
0.101619
0.0891093
0.0798992
0.131278
0.0792425
0.113979
0.114892
0.0511245
0.0451283
0.0618793
0.0558823
0.113982
0.108047
0.0571929
0.0594456
0.053922
0.0572628
0.1402
0.246586
0.0493793
0.0256586
0.138714
0.625876
0.20041
0.400256
0.561007
1.30742
0.396317
0.22939
0.248798
1.01917
0.981752
0.83677
1.38579
1.13587
0.698957
0.45269
0.318926
0.0560806
0.328857
0.0873454
0.375419
0.48283
0.908358
0.463743
0.989646
0.362357
0.0294168
0.453111
0.129499
0.137233
2.47705
2.16798
1.67202
1.82801
2.00748
2.35308
1.94767
1.21573
1.19949
1.30199
1.43463
2.40271
1.65614
1.83877
1.59379
1.79802
1.52856
0.914566
0.333784
0.361552
0.397269
1.74097
0.844022
0.803923
1.24971
0.113883
0.0272838
0.0401055
0.0557981
0.187136
0.0404771
1.07741
0.311003
0.375146
0.77947
0.837782
0.711049
0.0635777
0.833354
1.28752
0.457236
0.44819
1.54236
0.0185507
0.071951
0.0764863
0.185573
0.444194
0.270287
0.822703
0.439898
0.84476
0.0928813
0.169046
0.904637
0.275278
0.588321
0.519172
0.870414
0.361222
0.744
0.712292
1.30788
0.134253
0.265272
0.46101
0.151069
0.18843
0.65212
0.588317
0.525464
1.23237
0.699292
1.80471
1.10765
0.280437
0.197521
0.612799
0.969405
0.655749
1.26532
0.413134
0.874572
1.24168
0.313393
1.00276
0.00522578
0.00544439
0.00562651
0.00547013
0.00558288
0.0050313
0.00500987
0.00519951
0.00556066
0.00511391
0.00532658
0.00517855
0.00505435
0.686072
0.729823
0.879028
1.12571
0.977216
1.20822
0.700178
0.913069
1.43524
0.527441
0.728251
0.857516
1.35318
2.81581
0.953974
0.585522
0.829955
0.923244
0.636878
1.34932
0.106671
0.247481
0.189261
0.140916
0.0925532
0.570107
0.715967
0.739883
0.473162
0.519918
0.891788
1.52684
1.48235
1.49361
1.19751
1.20082
1.56247
1.72341
1.0689
1.03135
1.78563
1.14795
1.89386
1.86044
1.68281
0.910952
0.94165
1.28736
0.883756
0.952063
1.82348
0.88669
0.832897
0.952212
0.232862
0.222989
1.24877
0.656084
0.872694
0.765568
1.13596
0.403655
0.436576
0.464887
0.473392
1.0337
1.20663
0.903394
1.22707
0.954335
0.728292
0.876979
1.14266
1.58641
1.08515
1.23983
0.696936
1.10906
0.724973
0.788216
0.409798
0.221216
0.323143
0.0423503
0.116964
0.140254
0.426327
0.350566
0.940591
1.62748
1.14359
2.11216
1.46408
1.42183
1.63999
1.37157
0.873168
0.915841
0.918119
0.833418
0.993471
0.886447
1.1816
0.848754
1.05452
1.01955
0.968624
0.914817
0.766108
0.840816
0.681453
0.274074
0.310501
0.492424
0.40705
0.467195
0.720902
0.947598
1.01572
1.26631
1.07373
0.893917
0.894602
1.09629
0.930078
0.41381
0.878262
0.350485
0.355378
0.345382
0.341604
0.338503
0.383235
0.517478
0.413099
0.53427
0.441938
0.494762
0.866778
1.04942
0.589714
0.777871
0.424501
0.318106
0.609719
0.390248
0.579584
0.331078
0.219276
0.510433
0.446283
0.464464
1.00637
1.12007
0.610044
0.581946
1.12395
1.29817
0.542338
0.562387
1.19427
1.12301
1.90186
1.09918
1.09014
1.73309
0.757305
0.744085
0.756232
0.514919
0.85243
0.924599
1.01801
1.06259
0.865461
0.458917
0.756429
0.639482
1.05043
1.22961
1.28658
2.17429
0.893717
0.779656
1.38506
1.49861
1.44375
1.43713
0.382509
0.368415
0.449789
0.470147
0.699897
0.574689
1.12858
0.602538
0.655064
0.907005
1.56414
1.11398
1.01313
0.946678
1.02826
0.923327
0.747576
0.722832
0.76762
0.411043
1.26485
1.21187
0.888711
1.09718
0.34211
0.303625
0.782861
0.00400531
0.00417494
0.00375141
0.00374302
0.00423347
0.00445403
0.00395631
0.00425902
0.00418198
0.00531559
0.00379848
0.00372685
0.00367617
0.00368366
0.00377306
0.00382665
0.00367877
0.00370013
0.00391425
0.00393605
0.00380702
0.00357406
0.00353863
0.00351991
0.00390442
0.00383931
0.00373573
0.00353774
0.00348017
0.00368757
0.00373258
0.00387754
0.00390855
0.00368802
0.00370724
0.0038191
0.00378189
0.00374283
0.00378402
0.00388679
0.00388025
0.00373355
0.00381356
0.00375775
0.00376304
0.00372145
0.00378276
0.00388024
0.0039978
0.00374537
0.00386695
0.00385395
0.00380599
0.194653
0.0701013
0.073601
0.0671997
0.0708753
0.160394
0.0641658
0.0781498
0.0527626
0.187853
0.0517149
0.0530582
0.056273
0.0613526
0.0452074
0.162039
1.442
0.945336
0.867091
0.93049
0.400053
0.416699
0.787353
0.756337
0.393453
0.385364
1.83789
1.40928
1.4969
0.952971
0.428528
0.0843483
0.0129079
0.0187659
0.0780746
0.0762528
0.0475346
0.0181927
0.0176042
0.0176336
0.0221818
0.01369
0.0449455
0.0741253
0.0719669
0.0815487
0.249929
0.0913315
0.0564977
0.055412
0.00399917
0.00405887
0.00405058
0.00399768
0.00392643
0.00413738
0.00414682
0.00379096
0.00393546
0.00410676
0.0041093
0.00439091
0.00414904
0.00397737
0.00397132
0.00400564
0.00491366
0.00469674
0.00497636
0.00472499
0.00453242
0.00502764
0.00542571
0.00511442
0.00496225
0.00511581
0.00505205
0.00487997
0.00511771
0.00487305
0.00496823
0.00539046
0.00541291
0.00449204
0.00477956
0.00453951
0.0047555
0.00467546
0.00455993
0.0035093
0.00696273
0.00429656
0.00451616
0.00405635
0.00448865
0.00429905
0.00443865
0.0042384
0.00427267
0.00355682
0.413897
0.307208
0.369131
0.457327
0.28167
0.462788
0.404216
0.489616
0.311397
0.328392
0.345569
0.474749
0.567969
0.395487
0.505864
0.296332
0.49354
0.532887
0.0485082
0.0540913
0.0661286
0.0854454
0.0300789
0.10121
0.0523641
0.0575261
0.0619802
0.122663
0.0691033
0.0673586
0.0665982
0.0338905
0.103715
0.095412
0.130588
0.0812975
0.140917
0.137402
0.141406
0.104205
0.0911534
0.139755
0.144889
0.146487
0.102662
0.0675874
0.0716063
0.133543
0.0840656
0.114218
0.00389204
0.00392307
0.00395826
0.00445512
0.00471336
0.00393366
0.00384108
0.00433698
0.00419465
0.00425112
0.00363563
0.00464958
0.260682
0.165569
0.361843
0.132344
0.330415
0.245043
0.273115
0.278162
0.322455
0.0814776
0.0573981
0.0666221
0.0728754
0.0632916
0.0665108
0.0710642
0.0198457
0.0841325
0.0129125
0.0746173
0.18904
0.168323
0.244156
0.137423
0.121229
0.0817389
0.0498383
0.0326189
0.169318
0.0442671
0.0548934
0.0733293
0.00588284
0.00154859
0.0409934
0.00894603
0.00160596
0.05703
0.0429927
0.0135245
0.0022023
0.00234372
0.000599388
0.00195622
0.00310022
0.00279683
0.00283924
0.0566563
0.051057
0.0513198
0.0160649
0.142445
0.115018
0.0740089
0.199673
0.109082
0.160538
0.12357
0.0654534
0.105908
0.0589096
0.175034
0.14067
0.116892
0.118182
0.303642
0.312728
0.277399
0.289462
0.282247
0.281463
0.208797
0.237045
0.299779
0.191443
0.200377
0.310205
0.227287
0.196803
0.2197
0.193463
0.196582
0.212468
0.199659
0.432885
0.493526
0.0228408
0.0872647
0.33024
0.169347
0.0365576
0.0715966
0.568624
0.374915
1.18309
1.14262
1.34236
1.36281
1.30847
1.33476
1.24931
1.2669
1.10267
1.10079
1.41642
1.55402
1.54973
1.47975
1.52331
1.46699
1.29975
1.20662
1.34808
1.28663
1.30948
0.0367731
0.0275044
0.0881399
0.0634422
0.0714443
0.0312542
0.0545243
0.0552619
0.0545055
0.165122
0.214914
0.275071
0.0273188
0.210359
0.383698
0.163643
0.272122
0.0720346
0.166146
0.287441
0.559703
0.175886
0.213814
0.621384
0.540256
0.204881
0.532203
0.3279
1.2879
1.31022
1.2938
1.53219
1.28988
1.53045
1.59574
1.52949
1.37059
1.36518
1.50424
1.44313
1.50927
0.0532242
0.0643749
0.0173811
0.0220104
0.0191696
0.0172244
0.029843
0.0371969
0.115534
0.0410535
0.0707243
0.0780745
0.0203144
0.0212388
0.0775746
0.0391084
0.0736293
0.0710102
0.0524791
0.0978013
0.117691
0.0437126
0.0732662
0.0239924
0.113653
0.0332173
0.0251466
0.127802
0.125656
0.0185979
0.0830974
0.0968101
0.0729503
0.0678692
0.129373
0.0291248
0.0558673
0.188054
0.108167
0.0421965
0.00601557
0.0135153
0.119084
0.219187
0.120223
0.114485
0.135219
0.193105
0.109649
0.139488
0.11054
0.0683329
0.0665536
0.11975
0.134254
0.187724
0.0709162
0.076813
0.0980754
0.19002
0.139534
0.101694
0.129953
0.11261
0.487647
0.466714
0.0683951
0.11323
0.144694
0.190079
0.107103
0.118187
0.175291
0.435204
0.573392
0.468328
0.157426
0.19423
0.108894
0.358697
0.275178
0.0432208
0.0435992
0.0257373
0.0303013
0.0324938
0.0251236
0.0196065
0.0345169
0.0302619
0.0429729
0.0464506
0.0198187
0.0447719
0.0441874
0.0038282
0.00375977
0.00390848
0.00394286
0.00395055
0.00385627
0.00402769
0.00391108
0.00422387
0.00433659
0.126124
0.085328
0.134778
0.183896
0.0574271
0.050012
0.171454
0.249702
0.0692543
0.145774
0.142925
0.142762
0.172461
0.0495937
0.16593
0.142328
0.033161
0.636797
0.694418
0.654567
1.08007
0.981944
0.781559
1.00732
0.934325
0.965453
1.03325
0.603471
0.601378
0.744272
0.667958
0.89022
0.930957
0.89236
0.630489
0.680288
0.705693
0.00246978
0.00370748
0.00365186
0.00223651
0.00483789
0.0282375
0.0325803
0.0054208
0.00378131
0.00341554
0.0310002
0.0387608
0.00201633
0.0176137
0.0238087
0.0452591
1.86981
2.18029
2.45768
2.33222
1.77405
2.1642
1.71007
2.22937
2.78282
2.50416
1.89478
1.95258
2.20111
0.080728
0.114699
0.0984566
0.067887
0.0605599
0.0653097
0.10705
0.0860931
0.0697037
0.0711717
0.0452929
0.071672
0.0413624
0.117367
0.0948295
0.0541201
0.121695
0.109694
0.049212
0.0446456
0.0430157
0.0528457
0.0015258
5.4268e-05
0.0025875
0.00160189
0.00128958
0.0259511
0.10512
0.00396623
0.0373021
0.240054
0.265075
0.142263
0.13182
0.161557
0.044467
0.139016
0.18556
0.141149
0.0501277
0.0494059
0.129068
0.0248854
0.0664447
0.0561214
0.0451627
0.0456295
0.0695133
0.0443641
1.00552
1.0354
1.11141
1.05648
1.01763
1.00679
1.01709
0.993081
1.11848
1.05947
1.1329
1.09123
1.17911
1.15992
1.16235
1.10837
0.0714803
0.165491
0.134845
0.0752688
0.0109452
0.0190479
0.0265614
0.0117205
0.010822
0.0102505
0.0869202
0.0588288
0.0188116
0.000878781
0.0310299
0.0228489
1.17601
1.70082
1.15319
1.53597
1.34316
1.9683
0.490966
0.615346
0.458026
0.489371
0.506638
0.735606
1.44323
1.88944
1.25909
0.808373
1.0128
1.01959
0.745039
1.73434
0.0133875
0.00925154
0.00738843
0.00651119
0.00757138
0.00592141
0.00655711
0.00669139
0.00663432
0.0148056
0.0165842
0.00885578
0.00871473
0.00589407
0.0156445
0.0642492
0.0750806
0.126587
0.173033
0.240891
0.241368
0.307025
0.123686
0.420977
0.558282
0.488696
0.236508
0.634487
0.65148
0.0248711
0.044483
0.0187671
0.02282
0.0199214
0.0314524
0.0114725
0.00684891
0.0329553
0.00761395
0.0157055
0.00672931
0.0108579
0.00670417
0.00547597
0.00580154
0.0742123
0.080501
0.0634069
0.0639911
0.223283
0.230571
0.0418816
0.121166
0.116421
0.0514544
0.220441
0.175732
0.267202
0.16552
0.177187
0.238693
0.244687
0.284829
0.28637
0.0115951
0.0533091
0.0251936
0.0236155
0.0131634
0.117801
0.0340438
0.0514172
0.0674666
0.0485737
0.012366
0.0146024
0.0217188
0.0155046
0.073507
0.057396
0.0470714
0.106459
0.0741183
0.0898688
0.0393165
0.0577318
0.113323
0.071243
0.0635801
0.0159223
0.0119045
0.0105414
0.0780518
0.00453636
0.00648943
0.0254934
0.022959
0.0125316
0.0109609
0.0261292
0.0289963
0.0133724
0.0249393
0.00908629
0.00731346
0.00728971
0.00807477
0.0309325
0.00855466
0.0230679
0.0206983
0.0165018
0.0310906
0.0243407
0.0250271
0.0611054
0.022997
0.065139
0.0717384
0.0557992
0.0393365
0.530005
1.1562
1.68671
0.892822
1.30393
0.649918
0.804219
1.22636
1.42102
0.476641
0.954158
1.12285
1.63106
0.641236
1.10925
0.306934
0.818958
0.459565
0.418975
0.760313
0.902943
0.694644
0.409526
0.369582
0.364199
1.26908
1.27678
1.27902
1.43089
0.359887
0.370419
0.354919
0.324279
0.35039
0.646367
0.671142
0.586437
0.0457276
0.0899554
0.0262881
0.0449344
0.0260408
0.0223114
0.0160096
0.02782
0.0213811
0.0209244
0.0286777
0.0166481
0.0182421
0.0197032
0.0195102
0.0159481
1.18532
1.25892
1.13476
1.25732
0.535297
0.788577
1.30145
0.791442
0.720401
0.866284
0.802352
0.927668
0.206195
1.20063
1.3736
0.987829
1.15169
0.297089
0.0715291
0.945496
0.0672315
0.990556
1.28046
0.403892
0.771211
0.29709
1.14252
1.46953
1.08001
0.125712
0.351936
0.445241
1.6231
0.364425
0.746597
0.831614
1.36811
0.383418
0.578015
0.566167
1.08255
0.317888
0.481215
1.55077
0.359768
0.721613
0.388596
0.937651
1.39796
0.747717
0.442324
1.1065
1.22227
0.366353
0.22642
0.871677
0.228126
0.831368
1.38669
0.82163
0.214954
0.257125
1.27734
0.839433
0.262958
0.237455
0.330113
0.254083
0.10859
0.171163
0.136033
0.267813
0.281761
0.0714972
0.0859701
0.0907698
0.216634
0.326931
0.137183
0.168423
0.0869139
0.224363
0.242047
0.083739
0.0789121
0.0445862
0.037544
0.0412978
0.0469907
0.12117
0.0688875
0.0448449
0.0673317
0.0486443
0.414744
0.707164
0.282403
0.0108625
0.0104617
0.0100506
0.0103661
0.0111684
0.00937594
0.0337254
0.0389299
0.0611328
0.0321919
0.00161231
0.012886
0.0141679
0.00849104
0.0274344
0.0265433
0.0782929
0.0303702
0.00657982
0.00738503
0.776986
0.779187
0.737203
0.641358
0.953896
0.936961
0.94907
0.783225
0.576679
0.701931
0.743042
0.750053
0.712336
0.744672
0.629365
0.706286
0.595715
0.575955
0.579835
0.027943
0.0132998
0.0190363
0.0146368
0.453024
0.763354
0.202989
0.329371
0.0562406
0.0228363
0.340636
0.0760271
0.0280076
0.141601
0.556692
0.213643
0.127984
0.291862
0.123237
0.300424
0.130234
0.120812
0.215955
0.134795
0.211519
0.814656
1.0321
0.523743
0.535226
0.403527
0.306064
0.213315
0.350279
0.286955
0.624529
0.280256
0.181091
0.1868
0.277308
2.05461
1.91946
2.27764
2.34154
2.1983
2.32607
1.88593
1.8279
1.79487
1.65725
1.68145
1.98647
2.01693
1.8919
2.29863
2.41056
0.0235299
0.0222428
0.0247529
0.0299172
0.0303879
0.0269078
0.050371
0.0418812
0.0448311
0.0276919
0.0314436
0.0300563
0.0454835
0.0351457
0.0358012
0.0345144
0.0417246
0.0391457
0.0394248
0.0304048
0.729335
1.00749
0.601929
1.01352
0.461734
0.524842
0.186145
0.32685
1.12182
0.656697
1.13496
0.941806
0.243261
0.23369
1.15221
0.842097
1.12894
0.735642
1.42039
0.484082
0.0219362
0.0445883
0.0551448
0.0549551
0.0372833
0.0281717
0.0250175
0.0391213
0.0490276
0.0417585
0.0426081
0.0380377
0.0658486
0.0316436
0.0840496
0.0765711
0.0784617
0.514793
1.11336
1.01189
1.93243
0.567511
0.650001
0.827119
0.888521
2.93637
0.845045
0.506738
1.62888
0.0119943
0.0104985
0.0090326
0.00412891
0.0114666
0.00835026
0.00770363
0.00524718
0.00496574
0.013621
0.00884977
0.00477128
0.0570354
0.000275894
0.0196586
0.00104318
0.0309858
0.0974964
0.00111022
0.0563951
0.0806957
0.16415
0.148388
0.00693447
0.0116464
0.247632
0.176679
0.262462
0.00929541
0.0213148
0.0351506
0.00783368
0.017061
0.0202102
0.00774063
0.0711865
0.0210577
0.0301463
0.00987979
0.051077
0.151536
0.0385635
0.0660937
0.0945307
0.359645
0.00776507
0.0162655
0.264397
0.45584
0.0415676
0.0114857
0.0975922
0.242368
0.0694167
0.245162
0.248351
0.200409
0.104834
0.13526
0.216278
0.154673
0.152844
0.0801327
0.025582
0.123104
0.0680773
0.0632595
0.0214671
0.015049
0.0238629
0.0290791
0.0524243
0.00215577
0.00418277
0.00281304
0.00288344
0.0719229
0.0715603
0.00910068
0.00115617
0.00540981
0.0383186
0.0726288
0.0716648
0.0113727
0.00330972
0.00520439
0.134084
0.0766211
0.511899
0.359156
0.125235
0.485763
0.328584
0.219501
0.104893
0.00225715
0.00145643
0.016043
0.0534955
0.00475498
0.0209687
0.0213593
0.00741448
0.0269099
0.0188761
0.0204811
0.0246593
0.0248892
0.0106155
0.0110154
0.0227738
0.0274563
0.0257719
0.0207328
0.0176636
0.0261284
0.020077
0.110358
0.0684454
0.0630008
0.155311
0.064398
0.514268
1.03293
0.0902339
0.230469
0.282262
0.194294
0.334302
0.292489
0.119251
0.837199
0.977872
1.25096
1.16406
0.499159
0.387912
0.229425
0.0674081
0.08443
0.381578
0.347307
0.154352
0.148381
0.145289
0.0819916
0.100939
0.157009
0.0957356
0.0822092
0.123665
0.0720529
0.0469999
0.12813
0.194366
0.125115
0.12284
0.372728
0.394514
0.393542
0.389437
0.388
0.383662
0.386613
0.391412
0.40575
0.385121
0.386532
0.389752
0.456743
0.421993
0.390465
0.382496
0.49747
0.380499
0.42486
0.532345
0.511867
0.431585
0.965675
0.776267
0.593566
0.827903
1.22364
0.758363
0.449813
0.85284
0.46113
0.791205
0.827921
1.57831
1.65383
0.909776
1.49574
1.76376
1.10851
1.57171
1.08838
0.735103
0.501688
0.360422
1.42196
1.00671
1.03155
0.197424
0.33814
1.22096
0.271855
1.01034
0.892224
0.251763
0.226567
0.19209
0.807888
0.980309
0.994108
0.974751
0.906329
0.9892
0.994663
0.905341
1.00475
0.96095
0.952391
0.98583
0.930341
0.868023
0.883505
0.833214
1.02782
0.973035
0.978824
0.869813
0.928615
0.977425
0.911942
0.633875
0.208797
0.235632
0.265604
0.731305
0.54244
0.954665
0.647128
0.560784
0.213021
0.431763
0.752595
0.539719
1.14108
1.0691
0.432616
0.462922
0.507748
1.46823
0.906403
0.955865
0.649759
0.401818
0.978829
1.08695
0.46594
0.345985
0.256991
0.952689
0.814082
1.04094
1.33081
0.605232
0.897916
0.901586
0.263501
0.65275
0.708173
0.283309
0.278688
0.986673
0.787007
0.807207
1.1386
0.819144
0.851426
0.301773
0.27833
0.656538
0.303644
0.832159
0.912202
0.958295
0.918632
0.932262
0.781128
0.817035
0.74425
0.850468
0.809822
0.555653
0.525596
0.851305
0.645215
0.520403
0.728428
0.755201
0.0762656
0.0877375
0.0897726
0.0887689
0.0878757
0.0994912
0.0840879
0.097431
0.0774871
0.0764567
0.0774796
0.100629
0.0810115
0.0939537
0.0853989
0.0924502
0.0835296
0.0825356
0.0855058
0.11537
0.0985137
0.0866485
0.0953115
0.0766273
0.0620742
0.0668494
0.0643654
0.0282659
0.0197126
0.0560041
0.0458101
0.0148248
0.0122031
0.0286017
0.028105
0.0106313
0.0240242
0.01835
0.020468
0.0216709
1.65226
1.42542
1.59953
1.77615
1.41955
1.7345
2.13908
1.29438
1.5302
1.83449
1.359
1.32864
1.42587
1.30064
3.12445
1.54636
2.14244
0.123444
0.0212952
0.13705
0.676409
0.544328
0.0273466
0.0903151
0.0807698
0.0114942
0.261983
0.414451
0.669667
0.216092
0.212493
0.473561
0.696272
0.121778
0.120244
0.13869
0.135489
0.167089
0.188487
0.146264
0.940541
0.754765
0.178696
0.125856
0.281614
0.47706
0.771695
0.513161
0.60387
0.621735
0.769025
1.24536
1.65366
1.04625
1.51108
0.316106
0.630513
0.285574
0.0388051
0.0325747
0.0396408
0.0321024
0.0215962
0.0363791
0.0299437
0.027999
0.0388928
0.0450531
0.0347305
0.032798
0.0288143
0.033886
0.113754
0.151777
0.105657
0.106499
0.237904
0.0911384
0.104072
0.194151
0.336175
0.235298
0.398867
0.144359
0.154724
0.24655
0.0855637
0.548216
0.599476
0.556329
1.05189
1.0561
1.06322
1.25658
1.44753
0.793295
0.599152
1.27408
1.31016
1.09022
1.54905
1.29519
1.23285
1.36377
1.32231
0.0294499
0.0410725
0.024903
0.0242749
0.0273198
0.0239135
0.0282344
0.0222399
0.0220758
0.0174721
0.934518
0.921351
0.670683
1.13403
0.236012
0.196218
0.146013
0.294019
0.53339
0.652282
0.909114
0.937548
0.773342
0.175948
0.195238
0.0688928
0.596067
0.823174
0.181239
0.188242
0.158882
0.189115
0.596014
0.480804
0.407584
0.356023
0.525549
0.504642
0.311994
0.523796
0.52013
0.45764
0.406225
0.496671
0.335726
0.45087
0.469944
0.351704
0.327956
0.420036
0.00696309
0.0068544
0.00651501
0.00698953
0.00662932
0.00633084
0.00669987
0.00656627
0.00614516
0.00645067
0.00627165
0.00653261
0.00675261
0.00654421
0.00628561
0.00601644
0.00612488
0.00591673
0.00626848
0.978121
1.05996
0.757787
0.905378
0.740196
0.737845
0.816053
0.650606
0.717379
0.66274
0.938162
1.02971
1.03141
0.904896
0.758624
0.729912
0.851561
0.936432
0.0277359
0.0289374
0.0242724
0.0220808
0.0370015
0.031056
0.0358735
0.030254
0.0280237
0.0471972
0.0354745
0.036879
0.0370077
0.0444467
0.0597939
0.0571485
0.00401825
0.00411983
0.00410894
0.0040346
0.00406735
0.00400644
0.00399406
0.00395728
0.00398048
0.0039682
0.00397726
0.00393017
0.00398604
0.00460225
0.00456504
0.00468395
0.0046712
0.00459787
0.00447036
0.00496072
0.00471812
0.00508242
0.0047586
0.00487801
0.00486543
0.00479907
0.00494776
0.00463731
0.00432797
0.00483852
0.00406485
0.00452503
0.00437696
0.00261281
0.00403446
0.00426214
0.00440829
0.00412201
0.00463784
0.00372205
0.00422465
0.00427497
0.0046587
0.00489167
0.00882977
0.00882463
0.00860944
0.00800834
0.00813866
0.00846643
0.0078786
0.00791475
0.00823104
0.00831348
0.00998211
0.00982458
0.00840169
0.00802094
0.00826731
0.0083199
0.00976539
0.00867432
0.00888212
0.00869404
0.718986
0.714689
0.632969
0.389639
0.543006
0.471169
0.716835
0.561695
0.647182
0.310095
0.336014
0.626256
0.49008
0.584368
0.678299
1.03098
0.708198
0.862128
0.88863
0.966424
1.10248
0.846546
0.961242
0.97335
1.04456
1.10709
1.28126
1.07118
0.467985
0.434491
0.494123
1.03576
1.04995
0.0116716
0.0108928
0.0109281
0.00960823
0.0124178
0.0110863
0.00963273
0.00950178
0.0102601
0.0109181
0.00879843
0.00871519
0.00858095
0.00923228
0.00975157
0.220746
0.160275
0.14978
0.142343
0.274765
0.169919
0.2101
0.25965
0.304861
0.00809567
0.00851104
0.00749338
0.00751521
0.00817814
0.00736788
0.00727947
0.0077181
0.00703657
0.00680026
0.00684522
0.00668435
0.00703154
0.00786704
0.00735399
0.00686013
0.00691791
0.00715405
0.00782031
0.00818984
0.00697527
0.00717417
0.00265754
0.00431447
0.00231582
0.00283285
0.00420485
0.00803061
0.00326864
0.00253316
0.00204767
0.00276935
0.0022626
0.00278881
0.00317388
0.0016035
0.0023104
0.0029922
0.00321526
0.00663473
0.00319357
0.00750024
0.00409452
0.00400977
0.00382423
0.00421905
0.00479101
0.00412495
0.00435423
0.00459906
0.00427473
0.00401852
0.00385716
0.0037244
0.00376583
0.00426576
0.00417626
0.00456896
0.00441382
0.00437259
0.00408874
0.00428715
0.00405455
0.00455206
0.00376452
0.00404197
0.00427606
0.00370808
0.0298402
0.0504477
0.0528187
0.041453
0.0123891
0.0453348
0.000477937
0.0012458
0.0480617
0.0191571
0.0650205
0.0339874
0.0281519
0.00301685
0.00530261
0.0221956
0.00655523
0.0106455
0.00326494
0.00501438
0.00566037
0.00741018
0.00637119
0.0237521
0.00530483
0.0124595
0.00594469
0.00601745
0.00547924
0.0062978
0.00779683
0.00562125
0.00640313
0.0156099
0.00860596
0.0106071
0.0150089
0.00721151
0.00941072
0.00938696
0.00914451
0.00726529
0.00756618
0.00725997
0.00373535
0.00378596
0.00428561
0.00374343
0.00362456
0.0046329
0.00395957
0.00371513
0.00366283
0.00378033
0.00460651
0.00370134
0.00347626
0.00547831
0.00600088
0.00559901
0.00507866
0.00559521
0.005976
0.00641801
0.00578163
0.00554864
0.00557955
0.00550108
0.00601328
0.005696
0.224711
0.127467
0.178214
0.221643
0.189252
0.130358
0.170596
0.179682
0.178252
0.235699
0.238937
0.21836
0.232198
0.0459932
0.0139625
0.0163299
0.0180027
0.0176196
0.0452064
0.0117249
0.0558496
0.014954
0.0143107
0.0210723
0.0124106
0.00853991
0.010878
0.0171604
0.0194327
0.0156063
0.0280171
0.034636
0.0563294
0.0125036
0.00913518
0.0453492
0.0406229
0.089849
0.0331136
0.04393
0.0480762
0.0136326
0.0410788
0.0143822
0.0172145
0.0215413
0.0133759
0.0198717
0.0147357
0.0298162
0.0162438
0.0100528
0.0110498
0.0265205
0.0143006
0.0118816
0.0144637
0.0185936
0.989881
1.074
1.02722
0.789716
1.03593
0.950027
1.15904
1.09305
1.06406
1.11258
1.1888
0.00397674
0.00385886
0.00411823
0.00428557
0.00441959
0.00406088
0.00426452
0.00411327
0.00429585
0.00430615
0.00407406
0.00409496
0.00417654
0.0030533
0.00845984
0.000213128
0.0440575
0.00446403
0.00632783
0.00267288
0.00265187
0.00675776
0.00770732
0.00442182
0.00545096
0.00622313
0.00506426
0.00924569
0.00416211
0.00523279
0.00534763
0.00779187
0.00455789
0.00436834
0.00458287
0.00357033
0.0038189
0.00306546
0.00206907
0.00460747
0.00337209
0.00346902
0.00461805
0.00351441
0.00377047
0.00397819
0.00379697
0.00386426
0.00343451
0.00329841
0.00378794
0.00384244
0.00397446
0.00392761
0.00424824
0.00418639
0.00402945
0.00391687
0.00395147
0.00400815
0.00401545
0.00395676
0.00450275
0.00411245
0.00410957
0.0158827
0.014607
0.0185486
0.0129947
0.0132511
0.0171456
0.0186982
0.0151661
0.0173651
0.016105
0.0132956
0.0174581
0.0142775
0.000521041
0.0043616
0.00419588
0.00222124
0.00327685
0.0035065
0.00334688
0.00393476
0.00375494
0.00355883
0.00355021
0.00214837
0.00012611
0.00349593
0.00394082
0.00261166
0.00468673
0.00250694
0.00707157
0.00788659
0.00234916
0.00588197
0.00963372
0.00648953
0.00742304
0.0169862
0.0135998
0.0109587
0.0169114
0.023221
0.0170549
0.0224499
0.0290868
0.0157179
0.016799
0.0207065
0.0235046
0.0173915
0.0221309
0.417424
1.26766
0.290463
0.522723
0.408115
0.988475
0.146116
0.142331
1.02457
0.138151
0.500201
1.42611
0.599385
0.470232
0.629318
0.437695
0.109823
0.398503
0.774104
0.203002
0.894062
0.543291
0.280205
0.119237
0.374783
0.858044
0.87616
0.00896535
0.0184711
0.0195339
0.00177186
0.0101695
0.606587
0.267141
0.541812
0.051706
1.14126
0.125916
1.14184
2.45628
1.98396
1.04005
2.14096
2.52167
0.945446
1.79763
0.347411
0.901364
0.830026
0.61463
0.701536
0.992744
0.647235
0.640663
0.876433
0.914683
0.606882
0.368487
0.736255
0.685266
0.389962
0.453749
1.04151
0.929757
0.643357
0.0432614
0.0772202
0.125811
0.11261
0.0701642
0.132432
0.0583363
0.196714
0.021827
0.040692
0.356266
0.529082
0.330524
0.423765
0.232548
0.0901671
0.112377
0.143098
0.382819
0.106538
0.343915
0.39569
0.215582
0.188705
0.210661
0.146077
0.180116
0.286199
0.498451
0.419568
0.0862825
0.280205
0.45304
0.288024
0.0531715
0.00362445
0.0223278
0.00695274
0.00337606
0.00212248
0.0353566
0.00328166
0.0213925
0.0375543
0.0424082
0.0377087
0.0036668
0.00161487
0.00295394
0.002319
0.0108621
0.00858524
1.02355
1.33378
1.25564
1.26937
1.50437
1.13783
2.22004
0.240239
1.99792
0.805691
0.310853
0.0560511
0.298242
0.450483
1.24969
0.198699
1.30792
0.816447
0.23011
0.361338
0.0584082
0.276722
0.00276663
0.00295956
0.00199255
0.00205971
0.00282637
0.00277204
0.00283038
0.00265237
0.00278239
0.00308343
0.00267449
0.00269705
0.00252659
0.00254716
0.0025854
0.002382
0.00258924
0.00277646
0.0026649
0.00253235
0.00758314
0.0252579
0.0770588
0.00436309
0.00156833
0.00308113
0.0826267
0.000683497
0.0179078
0.00365963
0.00374056
0.0253846
0.0036002
0.00365907
0.0247286
2.52012
3.26248
2.47238
3.68096
3.55531
3.18403
3.70142
2.03338
0.011403
0.00724282
0.0225729
0.0191883
0.019808
0.00535289
0.0096683
0.0059453
0.0193268
0.0146548
0.00574189
0.0141889
0.0811359
0.118113
0.972322
0.364518
0.088087
0.160589
0.896205
0.674219
0.88042
0.93099
1.31758
0.681195
1.08669
1.71666
0.521814
0.202153
0.206412
0.285062
0.00233234
0.00513995
0.00599969
0.00738063
0.00683801
0.00224832
0.00297248
0.00570199
0.00505255
0.00638171
0.00932392
0.00442179
0.00372244
0.00685325
0.0036305
0.00831883
0.0100363
0.00482656
0.0423949
0.0435416
0.0670229
0.0697149
0.0586638
0.0639633
0.0337093
0.0419208
0.0496946
0.0777877
0.0682096
0.0453647
0.0977322
0.0467297
0.0676572
0.0703145
0.0643609
0.0417088
0.0407235
0.0676237
0.0694703
0.0373594
0.01455
0.0131869
0.0150979
0.0177365
0.0139147
0.0167913
0.0146713
0.0130786
0.0156652
0.0174731
0.0172511
0.0157963
0.0155467
0.0144152
0.0157441
0.0140278
3.66773
3.22527
2.82866
3.75978
3.16157
3.13269
2.31037
1.59717
1.07076
1.05748
1.11791
1.14231
2.5859
1.21361
1.58618
1.35439
1.81477
2.10739
0.0630977
0.130864
0.116551
0.060315
0.033828
0.0193698
0.056706
0.0691493
0.0885373
0.0701524
0.0374476
0.0285894
0.0245146
0.0295095
0.0557312
0.0379977
0.00801805
0.00448629
0.0027936
0.00278395
0.00402374
0.00296419
0.00299156
0.00301559
0.00219005
0.00201331
0.0117778
0.00864431
0.0161425
0.000508273
0.00262259
0.00215886
0.00245645
0.00265358
0.00638525
0.0127387
0.447053
0.43932
0.358019
0.208751
0.0486108
0.220227
0.0275009
0.166431
0.21153
0.335235
0.0548224
0.0481481
0.117962
0.139811
0.0664521
0.0785069
0.0827693
0.049751
0.0334477
0.0452553
0.0722968
0.0554321
0.01598
0.0403263
0.0186791
0.019983
0.0152687
0.0289547
0.247401
0.171775
0.101176
0.206854
0.308785
0.0615421
0.0424713
0.182308
0.20364
0.181997
0.0458406
0.0331349
0.101624
0.127208
0.0799276
0.0541475
0.0860637
0.0381436
0.034922
0.0043847
0.0397196
0.0385144
0.0441738
0.0434871
0.0282837
0.0341446
0.0161577
0.0141211
0.01939
0.0122855
0.0478237
0.0468549
0.0246067
0.0395692
0.036662
0.0386309
0.0555126
0.0218143
0.00716664
0.0723777
0.0603908
0.0262618
0.0221446
0.0455283
0.00238074
0.00156189
0.00528118
4.96724e-05
3.90666e-06
0.00189543
0.00151796
0.00161641
0.0148898
0.0340356
0.0286159
0.00620622
0.00587137
0.0126923
0.00910309
0.0117428
0.00779506
0.00851001
0.00324729
0.00492056
0.000547198
0.00932527
0.00911097
0.00498713
0.00466565
0.00499057
0.00501248
0.00460267
0.00476524
0.00505634
0.00486372
0.00486244
0.00482682
0.00495926
0.00472905
0.00458063
0.00478104
0.0120703
0.0124049
0.016716
0.0162468
0.0171402
0.0172747
0.0119656
0.0106768
0.0142587
0.015154
0.0123713
0.0153345
0.0132157
0.0138126
0.0467928
0.0546506
0.0582331
0.0618548
0.119703
0.121215
0.131312
0.143683
0.0529212
0.0908662
0.0853032
0.0861033
0.119734
0.082866
0.0747016
0.379703
0.455808
0.0420501
0.053147
0.142872
0.389643
0.485197
0.00854926
0.0552411
0.0285343
0.0615516
0.137431
0.0357656
0.0560374
0.0272339
0.00778592
0.0400199
0.638321
0.843526
0.649971
0.58718
0.476232
0.489667
0.553828
0.660747
0.459475
0.440076
0.625962
0.496319
0.537774
0.455585
0.416629
0.506876
0.522432
0.524114
0.591212
0.560177
0.558747
0.534841
0.516225
0.518236
0.649404
0.673381
0.701589
1.03001
0.385997
0.473731
0.48234
0.692112
0.319055
0.381096
0.961943
0.817166
0.714688
0.110063
0.170127
0.082425
0.0644842
0.219938
0.20303
0.207598
0.14904
0.217963
0.0595176
0.15486
0.0677322
0.206911
0.246427
0.151585
0.186843
0.369002
0.372328
0.172155
0.261514
0.371241
0.420061
0.411252
0.327443
0.283144
0.273251
0.279887
0.307657
0.133282
0.185852
0.34608
0.206902
0.195734
0.219025
0.00356325
0.00374099
0.00392
0.00357836
0.00333964
0.00369267
0.0033306
0.0033742
0.00359828
0.00338448
0.003349
0.00333489
0.00337984
0.00339794
0.00335746
0.00335089
0.00334998
0.00335401
0.00330894
0.00336122
0.0116953
0.00946833
0.00441442
0.00551812
0.0272337
0.0103615
0.00545046
0.0180382
0.00703739
0.0055632
0.00390263
0.0335497
0.00662505
0.0061035
0.00603343
0.00602814
0.00667504
0.00623307
0.00689496
0.00693577
0.00642928
0.00621288
0.00612603
0.00621808
0.00601072
0.00693848
0.00672048
0.0451979
0.0560234
0.0500816
0.0511843
0.246066
0.208832
0.170855
0.180457
0.227225
0.0646546
0.0961683
0.0348983
0.0405979
0.150595
0.113893
0.0893452
0.0735156
0.0704896
0.100891
0.0824369
0.068479
0.160258
0.150216
0.379097
0.270725
0.156823
0.220715
0.209834