/*--------------------------------*- C++ -*----------------------------------*\
  =========                 |
  \\      /  F ield         | OpenFOAM: The Open Source CFD Toolbox
   \\    /   O peration     | Website:  https://openfoam.org
    \\  /    A nd           | Version:  10
     \\/     M anipulation  |
\*---------------------------------------------------------------------------*/
FoamFile
{
    format      ascii;
    class       volScalarField;
    location    "16";
    object      nut;
}
// * * * * * * * * * * * * * * * * * * * * * * * * * * * * * * * * * * * * * //

dimensions      [0 2 -1 0 0 0 0];

internalField   nonuniform List<scalar> 
75457
(
0.0592553
0.0655826
0.0523908
0.0213838
0.0602659
0.0249443
0.0623462
0.0196216
0.0287993
0.0284161
0.0267877
0.0425948
0.0559648
0.0197887
0.0354151
0.0294688
0.00830405
0.0207462
0.0254706
0.00494069
0.0128069
0.0085058
0.0331803
0.034144
0.021068
0.0388002
0.0391397
0.0403564
0.0354352
0.0547935
0.0373844
0.0477539
0.0477599
0.0253518
0.0228211
0.0299903
0.0279851
0.0461489
0.0454863
0.0284035
0.0288622
0.027088
0.0285699
0.0495774
0.0767853
0.0199856
0.0108413
0.0488615
0.0989739
0.0562584
0.0795398
0.096522
0.0916246
0.0818464
0.059234
0.0610874
0.125579
0.108844
0.102342
0.015452
0.0918844
0.102768
0.0518404
0.0443784
0.0079349
0.0411249
0.013094
0.0452922
0.0568896
0.0116162
0.0565626
0.0126799
0.0466558
0.00380043
0.0562752
0.0181199
0.0180715
0.173363
0.188392
0.222327
0.112308
0.129197
0.206802
0.248631
0.165148
0.217463
0.211533
0.133906
0.200299
0.115657
0.254579
0.254044
0.151748
0.210412
0.160542
0.0987445
0.0983057
0.101499
0.0141708
0.123148
0.0955651
0.113143
0.00514367
0.00136349
0.00101376
0.00135698
0.00898389
0.00216519
0.0101645
0.0427177
0.0667217
0.0081101
0.00790541
0.0529884
0.0119472
0.0846568
0.0116754
0.049587
0.05215
0.0136967
0.00307293
0.0106504
0.0114163
0.0288883
0.0589922
0.0356375
0.00737364
0.0681918
0.0740317
0.0129011
0.0246494
0.130677
0.0419748
0.0967942
0.155789
0.0567275
0.0512892
0.13628
0.12451
0.00991621
0.0304442
0.0491449
0.0692823
0.034807
0.0412964
0.109083
0.0828442
0.063724
0.0686216
0.137433
0.0110367
0.118062
0.0547184
0.0477702
0.0679604
0.0712885
0.156014
0.0077667
0.0779106
0.125288
0.00759511
0.0583654
0.123672
0.000864413
0.000869547
0.000861235
0.000878708
0.000872281
0.000868473
0.000864971
0.000855756
0.000883336
0.000849147
0.000866906
0.000868896
0.000868307
0.0789147
0.0920364
0.11579
0.09672
0.207442
0.00738852
0.180828
0.0752584
0.0087238
0.102037
0.191045
0.0891816
0.0757396
0.0173318
0.120678
0.074166
0.0971943
0.0709952
0.0688275
0.0136673
0.0267135
0.0539634
0.0467156
0.0321092
0.0237687
0.0765039
0.0827647
0.00802433
0.0760387
0.0727121
0.0693038
0.130083
0.117434
0.117181
0.107249
0.104887
0.0128438
0.0133302
0.111514
0.093545
0.0145247
0.103828
0.014639
0.0153849
0.0635457
0.106783
0.0771851
0.00980711
0.0830706
0.0834941
0.0138723
0.0673559
0.105941
0.00723441
0.0461343
0.0447965
0.0633396
0.0786231
0.0912104
0.105778
0.121574
0.0898106
0.0910402
0.0923288
0.0896952
0.113901
0.00935459
0.125451
0.0740005
0.0941842
0.104155
0.119465
0.104461
0.0124152
0.103176
0.00965323
0.0709542
0.0104474
0.0898354
0.00739611
0.0650164
0.0278489
0.0413176
0.00869664
0.0312612
0.0342159
0.092478
0.0578833
0.0936266
0.0175978
0.0985155
0.0156679
0.0158106
0.0704155
0.0120579
0.0791317
0.14663
0.150478
0.0907661
0.135523
0.0942754
0.0774456
0.0110302
0.0833645
0.111278
0.00945258
0.0994449
0.00853421
0.103236
0.00780226
0.100457
0.0656339
0.07462
0.0903402
0.0808703
0.0857367
0.144468
0.00912956
0.0665601
0.0124054
0.0687377
0.108483
0.10804
0.0105913
0.110992
0.0478932
0.0281865
0.111803
0.0853421
0.211429
0.0104749
0.141148
0.16088
0.0158951
0.280134
0.152374
0.104434
0.152193
0.0799077
0.0938282
0.0856754
0.107885
0.0430105
0.0142094
0.0562563
0.0892156
0.129338
0.0281873
0.0097948
0.112859
0.0957413
0.0893634
0.123155
0.0861199
0.0551701
0.0592232
0.0995384
0.00843119
0.0953312
0.0962336
0.135983
0.141561
0.012521
0.110553
0.129002
0.0114671
0.112427
0.108751
0.03926
0.0782474
0.0760444
0.126736
0.0368469
0.156114
0.145397
0.0314342
0.117057
0.131254
0.114117
0.148428
0.126829
0.0202565
0.106848
0.139931
0.0186575
0.0141644
0.0200154
0.0136626
0.0863678
0.0888149
0.0829151
0.0926063
0.0935947
0.0891622
0.101448
0.0963208
0.0955544
0.103531
0.0135442
0.0874024
0.08765
0.123066
0.00881847
0.130895
0.113825
0.0980252
0.0340629
0.0228189
0.0688811
0.288893
0.101957
0.123969
0.0697676
0.0701422
0.094188
0.000885778
0.000913077
0.000848455
0.000848487
0.000923261
0.000966788
0.000877121
0.000931452
0.000909297
0.001146
0.000839834
0.000841121
0.000813722
0.000821318
0.000848083
0.00083954
0.000828167
0.000837911
0.000897231
0.000902517
0.000857401
0.000816655
0.000794025
0.000802059
0.000868861
0.000857734
0.000856544
0.000799462
0.000789238
0.000826704
0.000839083
0.000910996
0.000904448
0.000850539
0.000847749
0.000885241
0.000869448
0.000853514
0.000853287
0.000912266
0.000901701
0.000876208
0.000896109
0.000869364
0.000861167
0.000858237
0.000856046
0.000893214
0.000915238
0.000863151
0.000884435
0.000890369
0.000873069
0.052194
0.0246942
0.0257831
0.0236355
0.0249754
0.0453143
0.022389
0.0274331
0.0192986
0.0493236
0.019245
0.0190763
0.0202035
0.0216552
0.0170342
0.0474193
0.0419766
0.0374275
0.0512471
0.0233703
0.0311256
0.0320216
0.0590457
0.0256784
0.0310252
0.0294216
0.0424061
0.0348933
0.054166
0.0299297
0.0269129
0.00799183
0.00361365
0.00533939
0.0206825
0.0194796
0.012808
0.00501154
0.00494463
0.00501874
0.00615818
0.00376921
0.0122708
0.0192331
0.0188033
0.0226249
0.0533147
0.0244958
0.0154861
0.0151627
0.000877796
0.0008799
0.000884671
0.000886899
0.00087686
0.000916338
0.000915718
0.000834288
0.000866427
0.000907471
0.000901799
0.000948804
0.00091302
0.000867593
0.000862025
0.00086624
0.000842622
0.000839167
0.000841037
0.000844793
0.00084504
0.000835874
0.000852897
0.000847208
0.000846212
0.000847418
0.00085927
0.000847401
0.00085083
0.000848961
0.000854864
0.000862936
0.000853693
0.000953029
0.000981936
0.000971287
0.00101082
0.0010105
0.000992377
0.000749416
0.00144891
0.000932954
0.00100308
0.000858389
0.000984674
0.000956199
0.000984487
0.000925914
0.000961338
0.000769568
0.0979831
0.0817292
0.0886704
0.093912
0.0826002
0.108102
0.105045
0.115527
0.0859598
0.0947912
0.0866881
0.0956301
0.125177
0.0985715
0.124134
0.0754327
0.102264
0.106341
0.0221476
0.0248339
0.0297954
0.0351558
0.0145511
0.0400479
0.0238235
0.0264012
0.0283592
0.0461567
0.0302092
0.0308012
0.0299123
0.016012
0.0400135
0.0373647
0.0471521
0.0321291
0.0492834
0.0484369
0.0500791
0.0393729
0.0354598
0.0487656
0.0501515
0.0512807
0.039245
0.0274762
0.0287852
0.0481034
0.0321777
0.0417215
0.000915291
0.000918984
0.000922033
0.000990251
0.00103616
0.000917255
0.000894866
0.000964852
0.000948428
0.000951071
0.000851649
0.00102597
0.0655773
0.0488455
0.084161
0.0407353
0.0785989
0.0633732
0.0657447
0.0672892
0.0779194
0.0274945
0.020144
0.0224896
0.0223226
0.0194657
0.0223348
0.0217353
0.00979628
0.0325294
0.00645546
0.0309871
0.0542341
0.0531894
0.0576656
0.0451903
0.0406914
0.0330537
0.0222249
0.0153305
0.0446515
0.0199371
0.0232529
0.0283296
0.00161268
0.000426891
0.0112248
0.00242729
0.000421913
0.0154017
0.0117794
0.00375335
0.000613548
0.000637264
0.000161635
0.000531437
0.000838726
0.000743024
0.000753451
0.0153946
0.0140105
0.0138022
0.00447305
0.0565018
0.0461518
0.0333149
0.0709519
0.0444274
0.0587593
0.0467859
0.0281322
0.0424706
0.0270876
0.0649504
0.0546865
0.0476547
0.0479314
0.102577
0.114767
0.0989541
0.10015
0.103475
0.100538
0.080544
0.0940339
0.115215
0.0793668
0.0815492
0.113791
0.088561
0.0785646
0.0860773
0.0828032
0.0820555
0.0839408
0.0399053
0.0697538
0.07754
0.00580411
0.022138
0.061341
0.0361434
0.0109542
0.0195881
0.0822386
0.0674035
0.186992
0.186408
0.189302
0.107693
0.151815
0.201421
0.198969
0.163885
0.178261
0.176085
0.188807
0.137122
0.139283
0.190423
0.149046
0.175582
0.187178
0.173818
0.167128
0.125486
0.163811
0.0134495
0.00991584
0.0293702
0.0221661
0.0249477
0.0117228
0.0194746
0.0195315
0.019381
0.0473971
0.0550775
0.0631142
0.0104269
0.0553217
0.0740339
0.0456753
0.0615491
0.0185456
0.0529775
0.0637507
0.0425035
0.0550197
0.0609137
0.078714
0.0439458
0.0455712
0.0735887
0.0616827
0.271631
0.295349
0.225018
0.224382
0.23606
0.243847
0.234235
0.213239
0.197365
0.233056
0.206057
0.219677
0.209596
0.0255226
0.0300609
0.00928372
0.0115733
0.00979632
0.00901978
0.0146748
0.0180517
0.0463706
0.020502
0.032399
0.0347146
0.010873
0.0109388
0.0333493
0.0202057
0.0338613
0.0331605
0.0254122
0.039507
0.0461303
0.0216859
0.0280576
0.0103037
0.0405567
0.0141046
0.0107975
0.0424792
0.0439182
0.00839711
0.0320086
0.0341168
0.0276205
0.026034
0.0437151
0.0130275
0.0230512
0.059193
0.0399603
0.0182133
0.00288728
0.00640142
0.0419369
0.0604816
0.0488575
0.045567
0.0454836
0.0569289
0.0443802
0.0561345
0.0423191
0.0296924
0.0288772
0.0428767
0.0461896
0.0561438
0.0300828
0.0326557
0.0381354
0.0564155
0.0547848
0.0419026
0.0481625
0.0464352
0.110195
0.0940444
0.0305305
0.0464226
0.0544603
0.0492346
0.0446214
0.0471819
0.0508624
0.120371
0.13337
0.120887
0.0609322
0.0738506
0.0459798
0.11535
0.101358
0.0155818
0.0158243
0.0102493
0.0116633
0.0126663
0.0102192
0.00826344
0.0134357
0.0118773
0.0162361
0.0175227
0.00829355
0.016689
0.0163375
0.000861241
0.000794616
0.000807584
0.00087023
0.000843107
0.000814211
0.000830844
0.000848922
0.000899209
0.00090158
0.0414297
0.0318249
0.0443333
0.053937
0.0225406
0.0197761
0.0509686
0.0613972
0.0265302
0.0439337
0.0449628
0.0447946
0.0482288
0.0190717
0.0479834
0.0446114
0.013107
0.110555
0.114383
0.110626
0.17224
0.164681
0.137883
0.162212
0.158118
0.168193
0.181271
0.103031
0.104721
0.123447
0.116636
0.145933
0.166535
0.156998
0.114399
0.119956
0.127601
0.00051804
0.000767399
0.000769119
0.00046814
0.000963367
0.0054801
0.00581644
0.00110267
0.000767955
0.000712312
0.00565834
0.00700786
0.000423748
0.00362128
0.0046758
0.00777992
0.207537
0.278576
0.36069
0.313696
0.152262
0.237686
0.142096
0.194643
0.268688
0.271382
0.159974
0.184785
0.215339
0.0277204
0.0366439
0.0337556
0.0246151
0.0225546
0.0238613
0.0347502
0.0291577
0.025177
0.0254765
0.0179157
0.025332
0.0107403
0.0275961
0.0237721
0.0138916
0.0290619
0.0267543
0.0130705
0.0119567
0.0116242
0.0140146
0.000401889
1.44114e-05
0.000671738
0.000418851
0.000329147
0.00674062
0.02612
0.00102925
0.00969243
0.0585575
0.0649516
0.0368451
0.0342249
0.0394848
0.0147029
0.0397438
0.0475353
0.0392016
0.0176753
0.0173928
0.0372397
0.00929276
0.0217589
0.0186294
0.0162852
0.0165869
0.0229834
0.0157058
0.214935
0.152987
0.206347
0.213965
0.200209
0.204021
0.132301
0.219563
0.163324
0.211222
0.206569
0.210397
0.203561
0.166966
0.202447
0.166643
0.0159033
0.0336668
0.0291
0.0170922
0.00249011
0.00425029
0.00601473
0.00267222
0.00245138
0.00227435
0.0189434
0.0131286
0.0041245
0.000192326
0.0064587
0.00491958
0.0223767
0.14423
0.085804
0.127266
0.0250941
0.134013
0.0846633
0.0634285
0.0770195
0.0771662
0.0826792
0.106451
0.162959
0.173985
0.091204
0.095853
0.0982007
0.097686
0.0855683
0.172033
0.00200551
0.00121236
0.00100591
0.000920392
0.00110735
0.000827786
0.000848049
0.00090721
0.000961592
0.00202451
0.00224621
0.00125479
0.00116312
0.000846275
0.00219324
0.012818
0.0140711
0.0237892
0.032275
0.0403279
0.0380495
0.042585
0.0202966
0.0557542
0.0698776
0.064809
0.0351426
0.0741623
0.071899
0.00665639
0.0107579
0.0051724
0.0061316
0.00553461
0.00825808
0.00334944
0.00211464
0.00833254
0.0021892
0.00434419
0.00208271
0.00320353
0.00208115
0.00168692
0.00181455
0.031078
0.033099
0.0272443
0.0271864
0.0620508
0.0625736
0.0191203
0.042206
0.0402088
0.0234293
0.0630371
0.0532684
0.0649571
0.0511579
0.0546294
0.0634914
0.0670532
0.065034
0.0635181
0.00434159
0.0158355
0.00826221
0.00825282
0.00476834
0.0305124
0.0107512
0.015324
0.0187602
0.0141839
0.00475457
0.00554555
0.00742379
0.00577011
0.0206031
0.0171668
0.0169851
0.0345466
0.0259195
0.0302693
0.0149299
0.0210599
0.0368223
0.02555
0.0228575
0.00192765
0.00165595
0.00146364
0.00960284
0.000532725
0.000859885
0.00345349
0.00303039
0.00166124
0.0014671
0.00343187
0.00389394
0.00162712
0.00312258
0.0011253
0.00087817
0.000906576
0.00103026
0.00417994
0.00108859
0.00739773
0.00672111
0.00542288
0.0103207
0.00799088
0.00781335
0.0206501
0.00754949
0.0204756
0.0234895
0.0184618
0.013041
0.110717
0.163146
0.0138047
0.164734
0.0693881
0.10162
0.0701963
0.00990941
0.011575
0.0925118
0.0822434
0.0780322
0.0131713
0.095974
0.0967731
0.0773016
0.0975057
0.0868778
0.0885573
0.0922293
0.0930353
0.0908435
0.0875464
0.0927388
0.0931654
0.101397
0.015493
0.0925535
0.017635
0.0930123
0.0918976
0.0916676
0.0869419
0.0910104
0.113466
0.105072
0.110443
0.0228492
0.0390943
0.0140772
0.0224823
0.0139519
0.0122482
0.00891639
0.0149501
0.0116172
0.0113562
0.0147738
0.00890761
0.00982536
0.0106885
0.0105299
0.00858078
0.213255
0.174165
0.172775
0.164352
0.071564
0.0846637
0.23441
0.110972
0.0949504
0.113495
0.0958509
0.124241
0.0537791
0.102578
0.0169551
0.101469
0.0142167
0.0645138
0.0254568
0.097755
0.0232262
0.116148
0.0763129
0.0842288
0.0941167
0.0724102
0.114518
0.0144771
0.106491
0.0459716
0.0795491
0.085584
0.0159369
0.0805001
0.112454
0.102967
0.107204
0.0923649
0.0717809
0.152389
0.00998199
0.0542882
0.0677572
0.0142428
0.0670168
0.085183
0.0499576
0.121332
0.0153379
0.133627
0.0674749
0.0989433
0.0131486
0.0821703
0.0572043
0.100572
0.0590671
0.0948001
0.0149046
0.0960087
0.0619029
0.0665191
0.0848333
0.089978
0.0689596
0.0671008
0.0754775
0.0694965
0.0415709
0.0557265
0.0489835
0.0716836
0.0726856
0.0304995
0.0347331
0.0363059
0.0626819
0.0764187
0.0481489
0.0546038
0.0351557
0.0660456
0.0682958
0.0192723
0.0214571
0.0108876
0.00908789
0.0105512
0.0118922
0.0258957
0.0246899
0.0123585
0.0158205
0.0122144
0.06959
0.0828998
0.0536963
0.00091324
0.000903589
0.000914917
0.000962966
0.000909731
0.000882789
0.00330984
0.00361207
0.00550207
0.00291232
0.000130071
0.000997633
0.00138817
0.000813711
0.00253683
0.00236547
0.00717557
0.00245177
0.000566436
0.000683571
0.0392752
0.0581819
0.054265
0.0444436
0.0279729
0.0356743
0.0226206
0.0100946
0.0510386
0.0666876
0.0533983
0.0208982
0.0234303
0.0113432
0.0328824
0.0309128
0.0333691
0.0386494
0.0336608
0.00544967
0.00298562
0.00434719
0.00362362
0.0408342
0.0504076
0.0206793
0.0268701
0.0116918
0.00519193
0.0298065
0.0102957
0.00593152
0.0205694
0.0428921
0.0262753
0.0203282
0.0260591
0.0196758
0.0270852
0.056252
0.0526322
0.0797182
0.0570561
0.0791658
0.089605
0.0887684
0.102373
0.0975007
0.107948
0.0877781
0.0787244
0.0996616
0.0875178
0.0966906
0.0886066
0.0691815
0.0792933
0.0862684
0.236345
0.253918
0.244777
0.355607
0.168827
0.137329
0.214972
0.227682
0.293644
0.212372
0.199553
0.206987
0.163113
0.238229
0.318321
0.217268
0.000961144
0.000974085
0.00102927
0.00114866
0.000998193
0.000979155
0.00166044
0.000964426
0.00109366
0.000757683
0.000973339
0.000948207
0.00101745
0.00104128
0.00110092
0.0011048
0.00107256
0.00101003
0.000998623
0.00103558
0.0917567
0.105204
0.0769794
0.100337
0.0737479
0.0786372
0.0437788
0.061997
0.0940014
0.0807602
0.0108015
0.101411
0.0521225
0.052574
0.0819684
0.0762715
0.0107553
0.0837398
0.0133678
0.0741586
0.000715925
0.00118832
0.00132967
0.000983334
0.000885752
0.000944423
0.00101625
0.000990201
0.00104069
0.000994266
0.000939845
0.00106826
0.00105234
0.000770995
0.00106378
0.000945412
0.00141947
0.156908
0.0911803
0.143537
0.0129922
0.0922247
0.109565
0.0958158
0.11328
0.0194604
0.110135
0.250721
0.0755856
0.000989362
0.000905523
0.000594015
0.000283894
0.00087322
0.000719714
0.000704417
0.000491178
0.00035429
0.000899802
0.000702658
0.000368993
0.00444187
1.94475e-05
0.00169839
8.09102e-05
0.0024179
0.00811811
7.19254e-05
0.005028
0.00712452
0.0282974
0.026077
0.00126397
0.00207089
0.0392045
0.0301215
0.0416373
0.00162083
0.00386756
0.00624212
0.00140232
0.00311979
0.00373591
0.00144363
0.0122229
0.00370823
0.00538835
0.00179794
0.0105875
0.0288088
0.00801433
0.0132582
0.0185655
0.0570105
0.00162595
0.00328228
0.0434818
0.0655454
0.0080956
0.00236874
0.0192222
0.0409937
0.0134506
0.0241631
0.0296058
0.0311485
0.0172633
0.013422
0.0330307
0.0277567
0.0241168
0.0128749
0.00402674
0.0219364
0.0109148
0.0101712
0.00343099
0.00479073
0.00742362
0.00915307
0.0157961
0.000702218
0.00138109
0.000892426
0.000921513
0.0205927
0.0196075
0.00291157
0.000368424
0.00169641
0.0116005
0.0207474
0.0209427
0.00159678
0.000461259
0.000711809
0.0188333
0.0108152
0.0630932
0.0515269
0.0177219
0.0573015
0.0451524
0.0332889
0.0163343
0.000316929
0.000185414
0.00208673
0.00740638
0.000655051
0.000960187
0.000971045
0.00044168
0.0014854
0.000961275
0.000933691
0.000978658
0.000975802
0.000569505
0.000557027
0.000890901
0.000911927
0.00103633
0.0007784
0.000743436
0.00103885
0.000832069
0.0151175
0.0118166
0.0117598
0.0202383
0.0124325
0.0386332
0.0517517
0.0169679
0.0206281
0.0252731
0.023342
0.0324701
0.0257023
0.0209369
0.124696
0.0959109
0.0269209
0.174286
0.0603334
0.0571166
0.0407119
0.0145365
0.0188949
0.0555255
0.0529346
0.0292644
0.0287289
0.0294907
0.0170226
0.0211256
0.0313872
0.0205848
0.0182994
0.0254516
0.015689
0.0101329
0.0263573
0.0369444
0.0267038
0.0262282
0.0971465
0.111534
0.120626
0.111005
0.095002
0.112597
0.115903
0.117464
0.0947633
0.116519
0.111582
0.109127
0.119605
0.124721
0.122619
0.122528
0.0909303
0.0851885
0.0871921
0.092141
0.105513
0.0985636
0.10695
0.131324
0.0945582
0.132932
0.014415
0.0915395
0.089138
0.0929733
0.104257
0.10769
0.0910555
0.112242
0.0198259
0.0884905
0.101196
0.0214306
0.103107
0.0204412
0.0963283
0.0930173
0.0855322
0.0789794
0.0181052
0.102888
0.0925949
0.0648431
0.077436
0.10644
0.0695238
0.0969199
0.0938427
0.0660029
0.0644939
0.0582938
0.099699
0.176712
0.154209
0.170899
0.104644
0.126475
0.119761
0.0975944
0.141417
0.142837
0.119654
0.147569
0.134967
0.113266
0.128196
0.0246062
0.11829
0.106529
0.114434
0.0210188
0.101705
0.122089
0.10922
0.114337
0.0472074
0.0522323
0.0565755
0.0872217
0.0781144
0.131492
0.093797
0.0863307
0.0508321
0.0699211
0.0990147
0.0703285
0.0106847
0.00991811
0.067936
0.0718732
0.0735917
0.0136666
0.10719
0.0784821
0.0867744
0.121179
0.108283
0.0114082
0.0759835
0.071696
0.0634126
0.0985298
0.0965496
0.0727814
0.0139968
0.0904237
0.0982637
0.090138
0.0634728
0.106862
0.124767
0.0644127
0.0636152
0.103573
0.091289
0.0804991
0.0113007
0.118331
0.0829631
0.0683698
0.0678027
0.0849922
0.0711568
0.154156
0.116566
0.196497
0.167041
0.116195
0.159759
0.173066
0.136186
0.152479
0.179848
0.127183
0.12428
0.196199
0.158015
0.126389
0.17085
0.176969
0.0386409
0.0437419
0.0442076
0.0441795
0.0440434
0.0466829
0.0429992
0.0500217
0.0388039
0.0388212
0.0398337
0.0474321
0.0406562
0.0455247
0.0434039
0.0447677
0.0421156
0.0412607
0.0422246
0.049305
0.0454266
0.0433381
0.0396981
0.0354549
0.0296996
0.0320286
0.03456
0.0166065
0.0119811
0.0297484
0.0233047
0.00908964
0.00750255
0.016168
0.0159391
0.00653949
0.0139449
0.0109092
0.0121897
0.0127966
0.210535
0.171578
0.179386
0.170713
0.175291
0.168998
0.258863
0.171996
0.160868
0.218345
0.185067
0.175563
0.188981
0.184652
0.255914
0.187189
0.236224
0.0312753
0.00614519
0.0346233
0.088309
0.085965
0.00788518
0.0240312
0.0215659
0.00347805
0.0566253
0.0821256
0.0957745
0.0641252
0.0645328
0.0899148
0.10214
0.0437463
0.0412074
0.0476688
0.0471028
0.0537505
0.0493546
0.0478751
0.0969648
0.100193
0.0513859
0.0404857
0.0596314
0.0850898
0.0939635
0.0850633
0.0967386
0.0873376
0.0967073
0.0816661
0.0148368
0.0975486
0.0136194
0.0722641
0.0853149
0.0685808
0.021049
0.0181562
0.0214555
0.0178691
0.012589
0.0196061
0.0166403
0.0157869
0.0204847
0.0228661
0.0185349
0.0178968
0.0161669
0.0184379
0.0366373
0.0483424
0.0366901
0.0376234
0.058115
0.034564
0.0370162
0.0520765
0.0760054
0.0619832
0.0844154
0.042991
0.0490487
0.0625987
0.0329616
0.0778028
0.0796096
0.0259824
0.0460331
0.208295
0.0550853
0.255232
0.293942
0.0765258
0.110909
0.150253
0.255898
0.252591
0.227552
0.17188
0.289469
0.279382
0.226783
0.00144434
0.00169434
0.000972141
0.00119052
0.0012838
0.00111235
0.0011908
0.00113293
0.000940388
0.000894255
0.0932974
0.0119407
0.0872943
0.0146999
0.0548333
0.0501462
0.0415386
0.061125
0.0742542
0.0743608
0.0866925
0.0934027
0.087888
0.0476173
0.0504379
0.024815
0.0745068
0.0864053
0.0469233
0.0500153
0.0434578
0.0466123
0.15497
0.0733083
0.0992316
0.0753109
0.123949
0.0316317
0.0650986
0.150321
0.130386
0.0305104
0.0570517
0.0333461
0.0704253
0.131817
0.132023
0.0666315
0.0637092
0.133412
0.000870873
0.000870802
0.000873431
0.000873546
0.000872833
0.000869179
0.00087358
0.000871075
0.000866702
0.000865696
0.00087628
0.000871014
0.000868013
0.000869187
0.000878331
0.000887133
0.000872486
0.00087758
0.000867214
0.123357
0.11386
0.0818015
0.102004
0.0628714
0.0567327
0.0879013
0.10111
0.0626897
0.104209
0.0816176
0.111205
0.109705
0.0641198
0.111183
0.100183
0.110759
0.0450894
0.000947861
0.000964811
0.000971608
0.000934896
0.000953586
0.000971139
0.000977145
0.000977722
0.000965971
0.0010287
0.000994204
0.000981966
0.000994966
0.00100981
0.00102787
0.00102215
0.000858228
0.000843613
0.000842229
0.000865662
0.00087991
0.000858633
0.000851641
0.000858412
0.000827348
0.00082579
0.000873853
0.000832842
0.000873609
0.00084448
0.000879791
0.000853158
0.000853934
0.000853018
0.000876659
0.000860513
0.000852117
0.000889085
0.00086924
0.000865865
0.000845038
0.000897836
0.000899859
0.000864245
0.000887249
0.000977326
0.000855161
0.000937461
0.00084881
0.000515758
0.000851903
0.000895018
0.000863191
0.000837934
0.000925829
0.000738014
0.000856252
0.000862578
0.000914923
0.000928521
0.000886627
0.000890297
0.000884961
0.000879706
0.000879331
0.000880787
0.000880798
0.000900748
0.000891876
0.000887044
0.000890064
0.000891454
0.000883774
0.00087302
0.000886736
0.000884806
0.000899655
0.000889076
0.000895856
0.0008935
0.0868733
0.088154
0.0822027
0.053354
0.0684374
0.0608104
0.0833825
0.0710465
0.073234
0.046839
0.0475275
0.072249
0.0663501
0.0716684
0.0781754
0.106738
0.0790669
0.0969666
0.0901786
0.096249
0.105575
0.090374
0.0980737
0.0906696
0.108813
0.0968962
0.105067
0.0926251
0.0478924
0.0484082
0.0478631
0.0824075
0.0949507
0.000908799
0.000909258
0.000896489
0.000946987
0.000913359
0.000909318
0.000863207
0.000886769
0.000887507
0.000879131
0.000882634
0.000895864
0.000897076
0.000892709
0.000877186
0.0663363
0.0511632
0.0483334
0.0463017
0.0784799
0.0492569
0.0619031
0.0734023
0.0849979
0.000882207
0.000889086
0.00088303
0.000881953
0.000893545
0.000881856
0.000880749
0.000886991
0.000886678
0.00087448
0.000870709
0.000854038
0.000868447
0.000886237
0.000881445
0.000868515
0.000844709
0.000853975
0.000897977
0.00088654
0.000885056
0.000833553
0.000708638
0.00113419
0.0006184
0.000754242
0.00111437
0.00205211
0.000858031
0.000694588
0.000539646
0.000748143
0.000596569
0.000760848
0.000833946
0.000442393
0.000635649
0.000815611
0.000867419
0.00180145
0.000862947
0.00203611
0.000822151
0.000840792
0.000785132
0.00090195
0.000955236
0.000865294
0.000898692
0.00093031
0.00087681
0.000840263
0.000801778
0.000805449
0.000801914
0.00090007
0.000888743
0.000926422
0.000912425
0.000882932
0.000882343
0.000889084
0.000864898
0.000924825
0.000808895
0.000896059
0.0009301
0.00080269
0.0105579
0.0166691
0.0172822
0.0143957
0.00467011
0.0167006
0.000192802
0.000481513
0.0160509
0.00750338
0.0213522
0.0122907
0.0104523
0.00124586
0.00215205
0.00827243
0.00263652
0.00427067
0.00131634
0.00200783
0.00225125
0.00289177
0.00249463
0.00883657
0.00212692
0.00486741
0.00184202
0.00183515
0.00162582
0.00186848
0.00247493
0.00176712
0.00199897
0.00425404
0.00207871
0.00288782
0.00415172
0.00223705
0.00286929
0.00284493
0.00271976
0.00217963
0.00217305
0.00221371
0.000884
0.000879357
0.000956917
0.000879787
0.000870565
0.00105447
0.00089604
0.000899157
0.000883077
0.000889049
0.00106215
0.000891698
0.000850428
0.000848243
0.000859798
0.00085731
0.000816722
0.000855558
0.000861913
0.00086194
0.000850297
0.000821676
0.00086829
0.000835368
0.000859457
0.000858151
0.0622428
0.0415453
0.0514731
0.0621801
0.0561505
0.0407052
0.049888
0.0520213
0.0520916
0.0642694
0.0654961
0.0617346
0.0638703
0.0176532
0.0061532
0.00721781
0.00782449
0.00762382
0.017466
0.00482756
0.0216196
0.00651169
0.00618903
0.00875494
0.00519708
0.00372333
0.00472891
0.0072699
0.00837116
0.00692961
0.0121857
0.0143444
0.0230852
0.00545193
0.00395272
0.0181088
0.016319
0.0325756
0.0139594
0.0179288
0.0191423
0.00578903
0.0167198
0.00605012
0.00672022
0.00848375
0.00536822
0.00802486
0.00587278
0.0116178
0.00636644
0.0040695
0.00451588
0.0104949
0.0055056
0.00474201
0.00570683
0.00711429
0.179791
0.1839
0.174945
0.152106
0.188731
0.180168
0.193949
0.210296
0.206471
0.210663
0.228484
0.000837644
0.000828608
0.000837039
0.000838962
0.000833367
0.000836853
0.000836039
0.000832842
0.000833136
0.000831994
0.000836455
0.000838502
0.000833567
0.00054718
0.00149086
1.99948e-05
0.00534974
0.000448483
0.00118267
0.000453633
0.000486874
0.00121798
0.00135275
0.000961334
0.001085
0.00119248
0.00103672
0.00155372
0.000924385
0.00107382
0.00108015
0.00143851
0.00094585
0.000855824
0.000948131
0.000732527
0.000774662
0.000652941
0.000446305
0.000985807
0.000693981
0.000678638
0.000919722
0.000673278
0.000780898
0.000785312
0.000842473
0.000845442
0.000794352
0.000756594
0.000838665
0.000826231
0.000857772
0.000840069
0.000854566
0.000841519
0.000864637
0.000855063
0.00083702
0.000830121
0.000842654
0.000846657
0.000932172
0.000852816
0.000862075
0.000927893
0.000924448
0.000939339
0.000914077
0.00091358
0.000933294
0.000942394
0.000925798
0.000935453
0.000930386
0.000917651
0.000935209
0.000913856
0.000126103
0.00103661
0.00106764
0.000553305
0.000804762
0.000906448
0.000875185
0.000983633
0.000933556
0.000907501
0.000918086
0.000509542
3.07318e-05
0.000909661
0.000969734
0.000648733
0.00103947
0.000616545
0.00152141
0.00177179
0.000583677
0.00243987
0.00397993
0.00269445
0.0030213
0.00694433
0.00561287
0.00438942
0.00675059
0.00954972
0.00721396
0.00890671
0.0114242
0.00664207
0.00694593
0.00870588
0.00967446
0.00703946
0.00897805
0.0930064
0.233397
0.0657792
0.110095
0.0850935
0.192369
0.0379394
0.0382964
0.199323
0.0356533
0.11322
0.257325
0.131837
0.106393
0.141916
0.103743
0.0288531
0.0905044
0.159729
0.0530155
0.179922
0.123871
0.0681259
0.0315253
0.0862268
0.172822
0.175977
0.00503074
0.00997307
0.0104665
0.00101319
0.00539229
0.0756328
0.0322036
0.0638243
0.00814061
0.112631
0.0204389
0.100115
0.175315
0.135182
0.0863045
0.0913199
0.182979
0.0836373
0.132692
0.0448907
0.150205
0.141909
0.10241
0.119046
0.20245
0.168624
0.146283
0.159003
0.185732
0.154327
0.105124
0.136459
0.115702
0.108412
0.12416
0.23931
0.207208
0.154596
0.00878513
0.0122015
0.0172292
0.00948718
0.00723215
0.0103356
0.00443303
0.0123453
0.00429113
0.00926068
0.0188088
0.0168952
0.0154164
0.0121345
0.0131968
0.0102763
0.0141073
0.00715098
0.020856
0.0154377
0.0696153
0.0761703
0.050546
0.0462191
0.04995
0.037527
0.0448933
0.0629623
0.0882319
0.0794752
0.0239788
0.0641305
0.0878016
0.0643162
0.0102719
0.000903614
0.00457975
0.00146659
0.000912038
0.000562961
0.00761804
0.000945668
0.00467351
0.00745992
0.0078829
0.0073379
0.00103674
0.000472626
0.000829128
0.000641476
0.00265973
0.00212572
0.105173
0.133786
0.126311
0.136595
0.160958
0.118761
0.197217
0.0262828
0.202623
0.0753815
0.0454816
0.0082553
0.0429035
0.0566961
0.122334
0.0234096
0.127859
0.0808958
0.032781
0.0442551
0.0112083
0.0389046
0.000761632
0.000817197
0.000553543
0.000578032
0.000792712
0.00079177
0.000789599
0.000732102
0.000774584
0.000858196
0.000755904
0.000772328
0.000724306
0.000707553
0.000722665
0.000675996
0.000728497
0.000787408
0.000773956
0.000725205
0.00132488
0.00426062
0.0109481
0.000938459
0.000279264
0.000648914
0.0115698
0.000134241
0.00326791
0.000820488
0.000826487
0.00466833
0.000769945
0.000809004
0.00507722
0.26612
0.373064
0.276733
0.416862
0.355141
0.40746
0.399306
0.21096
0.00375948
0.00229958
0.00723593
0.00610063
0.00638118
0.00172725
0.0030811
0.00184211
0.00631019
0.0047864
0.00181313
0.00460616
0.0227002
0.0321687
0.0987281
0.0674193
0.0258651
0.0397226
0.0959595
0.0969516
0.0918886
0.0924754
0.0144623
0.0906039
0.0941387
0.0188805
0.0727512
0.0452509
0.0463559
0.0583419
0.000778801
0.00168969
0.00199466
0.00244246
0.00221627
0.000739709
0.000990652
0.00180055
0.00163734
0.00207353
0.00298001
0.00138701
0.00121848
0.00225349
0.00118246
0.0026188
0.00311118
0.00155409
0.0225078
0.0230926
0.03286
0.0334264
0.030109
0.0314186
0.0180551
0.0222369
0.0256897
0.0360521
0.0339124
0.0235924
0.0414534
0.0238859
0.0337601
0.0347643
0.031687
0.0217735
0.0211889
0.0323298
0.0343567
0.0196314
0.000919386
0.000912781
0.00092513
0.000937029
0.000917334
0.000929026
0.000922132
0.000910929
0.00091934
0.000927096
0.000933085
0.000926769
0.000926962
0.000921268
0.000925939
0.000919316
0.520735
0.481507
0.372853
0.468081
0.373859
0.540145
0.285842
0.263326
0.202348
0.193985
0.196492
0.204071
0.459934
0.230898
0.258294
0.205343
0.34172
0.315985
0.0277398
0.0480804
0.0435698
0.0262484
0.0157831
0.0094816
0.0234311
0.0276803
0.0368107
0.0306914
0.0171726
0.0129906
0.0115939
0.0142452
0.0250436
0.0179005
0.00205654
0.00115938
0.000707749
0.000715973
0.00107724
0.000761472
0.000772177
0.000775719
0.000559995
0.000516483
0.00304965
0.00220821
0.00413693
0.000131154
0.00068585
0.000565411
0.000648813
0.000701452
0.00171144
0.00340492
0.0507449
0.051032
0.0469903
0.0316434
0.00969452
0.0308962
0.00479306
0.0266916
0.0315778
0.0421736
0.0107889
0.00992826
0.0201256
0.0230493
0.0124611
0.0139866
0.0214651
0.012616
0.00981858
0.0129749
0.0230487
0.0157948
0.00565341
0.0119659
0.00652449
0.00753516
0.00545812
0.0109124
0.0688132
0.0565872
0.0398635
0.0631691
0.0771429
0.0286057
0.0204347
0.0526567
0.0628279
0.0609785
0.0226068
0.0169943
0.0380778
0.0406449
0.0350121
0.0248932
0.0325349
0.0134976
0.0123151
0.00154012
0.0129338
0.0123541
0.0144097
0.0138935
0.0100734
0.0118522
0.006003
0.00510676
0.00694119
0.0044696
0.0160455
0.0157476
0.00902442
0.0137803
0.0124483