/*--------------------------------*- C++ -*----------------------------------*\
  =========                 |
  \\      /  F ield         | OpenFOAM: The Open Source CFD Toolbox
   \\    /   O peration     | Website:  https://openfoam.org
    \\  /    A nd           | Version:  10
     \\/     M anipulation  |
\*---------------------------------------------------------------------------*/
FoamFile
{
    format      ascii;
    class       volScalarField;
    location    "16";
    object      omega;
}
// * * * * * * * * * * * * * * * * * * * * * * * * * * * * * * * * * * * * * //

dimensions      [0 0 -1 0 0 0 0];

internalField   nonuniform List<scalar> 
75457
(
32.9191
33.8259
25.5997
20.0674
23.5847
28.9391
27.7849
34.1193
16.7287
16.606
15.6794
19.0942
18.9131
16.8412
2.39362
2.37429
2.03537
2.39464
2.32067
2.04932
2.21211
2.23233
2.40472
2.38272
2.29576
2.56818
2.59631
2.20806
2.2548
2.39586
2.11967
2.3868
2.40563
2.0166
1.97748
2.06331
1.99686
2.46987
2.37537
2.01359
2.05964
1.99062
2.00431
2.82789
3.21137
2.47075
2.36674
2.83893
6.32364
3.56232
5.03214
5.81222
14.2693
4.84221
3.87261
4.07282
8.11576
9.01984
8.17624
15.7742
12.3619
6.80128
8.73237
7.18653
7.06758
7.99654
6.67067
8.28882
8.48713
13.9372
8.19876
14.5463
7.76661
7.74038
8.0517
7.14682
7.5939
14.2882
10.306
6.99543
16.2768
10.7935
11.3784
7.83359
5.83424
5.51585
6.15505
6.65405
11.9956
14.3194
7.22278
6.27368
11.8487
6.79796
5.69676
3.38028
3.67783
3.91403
24.0767
6.85372
8.41231
11.0454
22.1404
20.0103
39.561
41.1193
20.8302
18.6945
20.4609
7.28043
5.62254
15.6939
18.4629
13.4189
5.32157
9.84391
22.1229
9.22088
8.59424
24.2164
6.03682
6.75571
6.69972
6.42381
7.52972
7.58433
18.1327
6.4509
11.4108
7.1995
6.85801
6.92271
6.55818
6.07806
3.33252
15.3438
7.04285
5.45934
5.72077
24.6979
4.40982
5.39775
6.65408
4.3402
4.56288
5.9782
7.10148
8.24594
17.9589
5.08825
31.8352
9.38192
5.1251
4.13481
9.01699
13.5983
4.20313
26.6691
5.30266
6.98051
26.4581
5.36949
8.1082
6.04548
6.26118
6.53307
6.22519
6.40032
5.79327
5.79195
6.07592
6.29508
6.02241
6.14436
5.95992
5.82092
8.69385
7.92972
7.59159
11.6389
4.71079
22.3351
3.87206
12.1325
28.1876
5.16913
3.81194
9.6154
17.8662
39.4816
7.90511
7.89475
8.53914
13.0043
6.36451
24.6255
3.99316
4.58609
4.05134
4.38866
3.8939
7.45199
8.65064
12.8612
6.22265
7.15036
12.8678
11.7375
12.6228
12.7462
11.1657
11.4487
23.663
26.4058
9.58531
11.0252
25.2965
11.0562
27.6808
25.8209
26.4818
8.53087
12.1999
23.2982
10.6386
11.4027
27.7282
13.1642
7.86186
20.0369
5.04748
4.97783
19.7154
8.34468
9.56793
7.23747
9.34379
4.49451
4.79542
5.03513
5.27779
9.07544
21.6125
7.20115
16.5819
10.1326
6.99237
7.3409
10.9387
24.7814
10.5175
21.9078
9.82234
19.6806
8.07002
14.0825
6.303
4.5469
5.34891
3.2619
3.74151
4.09908
4.61004
6.05644
10.0462
18.4139
11.6083
30.5935
17.465
20.192
26.9578
17.3328
5.9549
6.08622
10.1152
6.14963
10.538
11.4461
17.4188
10.1812
9.47644
16.1801
9.74031
15.3267
7.42095
14.6936
6.78356
4.17579
4.1611
5.45077
5.03337
5.44918
4.99003
20.5028
15.2601
23.7522
15.6207
8.24018
8.28027
22.1004
8.37969
8.64026
21.7116
3.13485
3.03754
1.63356
21.7116
2.39822
2.38211
21.7116
1.47465
2.48951
4.23174
2.29485
9.02533
8.018
5.28798
7.21017
9.86969
22.387
9.80492
4.37421
4.48116
11.7457
22.387
4.52273
4.66134
5.19747
8.17157
13.0059
11.0575
9.82632
11.2916
25.9908
5.68898
5.84398
8.78254
7.93304
31.4586
9.94251
8.45051
30.0302
6.73597
5.98932
18.5105
6.58065
11.2096
7.29549
18.5105
5.79006
5.95239
8.30799
6.46208
4.87211
9.20487
8.28423
10.1442
27.5984
8.36439
5.57173
15.8006
22.9098
16.1323
22.4345
4.42883
4.14812
5.4247
5.07684
7.47795
6.44543
11.1247
6.25554
6.85541
8.76072
23.3982
12.7454
11.5588
7.69247
18.9713
6.62996
6.56779
7.2015
15.9208
15.9208
18.3627
4.19487
8.7165
8.85047
4.90356
4.32871
8.31169
4.5218
4.57239
4.42146
4.4114
4.58535
4.60704
4.51056
4.57245
4.59913
4.63837
4.5229
4.43081
4.51773
4.48506
4.44892
4.55803
4.44206
4.4159
4.36259
4.36119
4.44019
4.37646
4.45657
4.38858
4.49373
4.4761
4.36139
4.42515
4.40953
4.46057
4.4484
4.25638
4.32147
4.3361
4.37304
4.31419
4.34976
4.3852
4.43464
4.26059
4.30326
4.26103
4.25569
4.32241
4.3697
4.33616
4.41887
4.34413
4.36805
4.33918
4.37223
4.32848
4.35932
3.72942
2.83878
2.85463
2.84317
2.8378
3.5396
2.86595
2.84874
2.73401
3.80858
2.68719
2.78136
2.78531
2.83316
2.65392
3.41715
29.7235
16.9399
16.9198
19.9844
12.8528
13.013
13.3346
15.0115
12.6817
13.098
29.6382
31.5037
27.5129
18.5122
13.4259
10.5543
3.57199
3.51461
3.77492
3.91449
3.71134
3.63015
3.56026
3.51356
3.602
3.63205
3.66279
3.85404
3.82735
3.60439
4.68781
3.72845
3.64828
3.65449
4.55592
4.61288
4.57863
4.50747
4.47783
4.51512
4.52849
4.54395
4.54218
4.5255
4.55677
4.62784
4.54431
4.58437
4.60697
4.62418
5.83139
5.59691
5.91694
5.59307
5.36356
6.01483
6.36151
6.03679
5.86408
6.03694
5.87947
5.75875
6.01497
5.74001
5.81173
6.24666
6.34057
4.71343
4.86749
4.6737
4.70461
4.62688
4.59496
4.68271
4.8055
4.60533
4.50229
4.72554
4.55851
4.49598
4.50859
4.57754
4.44451
4.62184
4.22417
3.75885
4.16296
4.86974
3.41004
4.28105
3.84804
4.23811
3.62258
3.46438
3.98635
4.96443
4.53732
3.81158
4.07516
3.92843
4.82613
5.01109
2.19022
2.17812
2.21942
2.43047
2.06712
2.52723
2.198
2.17892
2.18554
2.65754
2.28749
2.18688
2.22645
2.11657
2.59201
2.55353
2.7695
2.53034
2.85932
2.83673
2.82366
2.64662
2.57061
2.86585
2.88902
2.85657
2.61591
2.45985
2.48761
2.77618
2.61254
2.73762
4.25224
4.26892
4.29297
4.49898
4.54887
4.28851
4.29235
4.49497
4.42274
4.46982
4.26893
4.53188
3.97519
3.38965
4.29941
3.24888
4.20381
3.86667
4.15416
4.13383
4.13831
2.96341
2.84938
2.96235
3.26465
3.25144
2.9779
3.26952
2.02584
2.58635
2.00025
2.40801
3.48563
3.16459
4.234
3.04099
2.97924
2.47291
2.24245
2.12771
3.792
2.22034
2.36071
2.58843
3.64788
3.62759
3.65205
3.68561
3.80639
3.70284
3.64983
3.60331
3.58945
3.67778
3.70829
3.681
3.69635
3.76412
3.76832
3.68028
3.6442
3.71825
3.59148
2.52107
2.49216
2.2215
2.8142
2.4553
2.73212
2.64117
2.32664
2.49368
2.17478
2.69488
2.57229
2.45289
2.46565
2.96013
2.72489
2.8033
2.89027
2.7277
2.79956
2.59234
2.52085
2.60192
2.41213
2.45713
2.72608
2.56644
2.50499
2.55236
2.33641
2.39572
2.53117
5.00332
6.2059
6.3648
3.93528
3.94186
5.38369
4.68542
3.33732
3.6551
6.91433
5.56225
6.32697
6.12964
7.09108
7.16522
6.64084
6.62673
6.27893
6.30435
6.18573
6.25145
7.50195
9.12231
8.92761
7.77087
8.49392
8.35502
6.94392
6.94185
8.06616
7.91684
7.38025
2.73415
2.77379
3.00099
2.86213
2.86376
2.66611
2.79976
2.82937
2.81232
3.4838
3.90202
4.35831
2.62002
3.80247
5.18274
3.58275
4.42121
2.44306
3.13616
4.50883
5.90631
3.19678
3.51012
7.8942
5.58558
3.8789
7.23212
3.91495
4.74136
4.43618
4.59736
5.49308
5.46423
6.27629
6.81257
7.17265
6.94443
5.85773
7.3001
6.56932
7.20085
2.08537
2.14149
1.87221
1.90182
1.95682
1.90963
2.03362
2.06057
2.49154
2.00241
2.18291
2.24904
1.86833
1.94159
2.32612
1.93551
2.17444
2.14141
2.06512
2.47554
2.55129
2.01572
2.61128
2.32852
2.80233
2.35506
2.32893
3.00858
2.86113
2.2148
2.5961
2.8376
2.64117
2.60695
2.95945
2.23565
2.42362
3.17697
2.70686
2.3168
2.08347
2.1113
2.83959
3.62403
2.46069
2.51246
2.97292
3.39203
2.47069
2.48488
2.61205
2.30136
2.30471
2.7929
2.90658
3.34363
2.35737
2.35221
2.57177
3.36822
2.54696
2.42692
2.69822
2.4251
3.98817
4.9627
2.24022
2.43911
2.65686
2.94873
2.40027
2.50492
2.84338
3.61553
4.27569
3.87409
2.58363
2.63004
2.3683
3.10964
2.71492
2.77379
2.7552
2.51112
2.59801
2.56538
2.45847
2.37268
2.56904
2.54787
2.64675
2.65088
2.38966
2.68272
2.70466
4.44498
4.73156
4.83972
4.53082
4.68571
4.73621
4.84771
4.60711
4.69732
4.80999
3.04428
2.68117
3.04011
3.40946
2.54772
2.52891
3.36391
4.067
2.61039
3.31806
3.17873
3.18704
3.5759
2.60039
3.45807
3.1904
2.53002
5.76002
6.07098
5.91696
6.27073
5.96272
5.66826
6.20991
5.90905
5.74015
5.70005
5.85718
5.74266
6.02909
5.72687
6.10019
5.59016
5.68391
5.5113
5.67117
5.53048
4.76756
4.83122
4.74811
4.77743
5.02185
5.15272
5.60141
4.91605
4.92387
4.79501
5.47868
5.53104
4.75832
4.86394
5.09189
5.81743
9.00952
7.55181
6.75893
7.43463
11.6513
9.10531
12.0346
11.4536
9.48635
9.22742
11.8443
10.5668
10.2216
2.91222
3.13009
2.91675
2.75794
2.68503
2.73706
3.08057
2.95267
2.76855
2.79362
2.52811
2.8293
3.85115
4.25303
3.98911
3.89588
4.18743
4.10006
3.76513
3.73393
3.70054
3.77075
3.79658
3.76563
3.85196
3.82448
3.91793
3.84996
4.02449
3.85351
3.84859
4.09945
4.08112
3.86112
3.85157
4.09162
3.02437
3.4978
3.90364
3.60059
2.83603
2.84059
3.46589
2.67793
3.05368
3.01253
2.77323
2.75093
3.0245
2.82471
4.67823
5.0252
5.38612
4.92986
4.76558
4.93476
4.6207
4.52298
5.15435
5.01588
5.48435
5.18652
5.79242
5.75869
5.7415
5.33773
4.49468
4.91555
4.63383
4.40369
4.39549
4.48154
4.41606
4.38605
4.41468
4.50702
4.5884
4.48098
4.56095
4.56922
4.80435
4.64449
13.5626
11.7924
12.7621
12.0689
14.4937
11.685
5.79904
6.40897
5.94688
6.34178
6.12776
6.91028
8.85635
10.8246
11.1679
8.43346
10.3136
10.4375
6.84831
10.0815
6.67535
7.631
7.34506
7.07437
6.8374
7.15331
7.73199
7.37579
6.8993
7.31318
7.3832
7.05755
7.49252
6.96472
7.13308
5.01241
5.33581
5.32119
5.36122
5.9733
6.34353
7.2097
6.0939
7.55059
7.98943
7.54056
6.72996
8.5554
9.06104
3.73642
4.13493
3.62831
3.7217
3.59942
3.80868
3.4252
3.2388
3.95501
3.47796
3.61529
3.23103
3.38935
3.22137
3.24614
3.19723
2.38793
2.43213
2.32735
2.35379
3.59839
3.68479
2.19043
2.87084
2.89542
2.19616
3.49701
3.29899
4.11351
3.23547
3.24343
3.75946
3.64915
4.3797
4.50848
2.67071
3.36643
3.04925
2.8615
2.76058
3.86077
3.16651
3.35534
3.59627
3.42457
2.60087
2.63317
2.92556
2.68706
3.56776
3.34343
2.77133
3.08162
2.85956
2.96898
2.6334
2.74132
3.07758
2.78837
2.78158
8.25994
7.18892
7.20218
8.12799
8.51539
7.54686
7.38194
7.57626
7.54354
7.47114
7.61368
7.44652
8.21849
7.98678
8.07454
8.32807
8.04092
7.8376
7.40023
7.8585
3.11824
3.0796
3.043
3.01246
3.04606
3.20311
2.95909
3.04617
3.1813
3.05406
3.02242
3.01637
4.78704
7.08687
24.5216
5.41979
18.7918
6.3956
11.4567
20.9093
22.5076
5.15222
11.6016
14.3895
24.1137
6.68135
11.4624
3.9706
8.39907
5.28979
4.73112
8.24372
9.70538
7.6466
4.67781
3.9852
3.90917
12.516
14.5556
13.8193
15.4087
3.86924
4.03078
3.8718
3.72983
3.85
5.69659
6.38743
5.30988
2.00128
2.30098
1.86743
1.99866
1.86647
1.8216
1.79553
1.86087
1.84048
1.84255
1.94112
1.86897
1.85663
1.8434
1.85284
1.85858
5.5582
5.5605
5.99481
5.90626
7.47997
6.94257
5.55201
6.53712
7.23752
7.63283
8.37084
7.46667
3.83411
11.7046
13.7026
9.73526
12.5471
4.60504
2.80983
9.6721
2.89464
8.52836
16.7791
4.79517
8.1942
4.10288
9.97671
18.9827
10.1418
2.73456
4.42414
5.20239
19.95
4.52701
6.63913
8.07649
12.7617
4.15112
8.05249
3.71527
21.2041
5.85555
7.10204
25.3795
5.36833
8.47133
7.77851
7.728
16.2824
5.59555
6.55538
11.1832
15.2249
4.45846
3.9581
8.66717
3.86215
8.7697
16.2166
8.55787
3.47245
3.86542
15.057
9.32931
3.81322
3.53878
4.37366
3.65605
2.61216
3.07148
2.77712
3.73604
3.87643
2.34421
2.47516
2.50014
3.45608
4.27816
2.84913
3.08446
2.47225
3.3971
3.5441
4.34505
3.67767
4.09514
4.13121
3.91404
3.9514
4.67915
2.79011
3.62867
4.25598
3.98252
5.95983
8.53034
5.25926
11.8944
11.5779
10.9853
10.7648
12.2766
10.6208
10.1894
10.7777
11.1109
11.0537
12.3956
12.9165
10.2062
10.435
10.8144
11.2211
10.911
12.387
11.6162
10.8036
8.15129
10.1439
6.96114
6.77736
10.9415
10.9612
18.2228
15.9216
6.61687
7.01579
8.06819
10.3908
11.4654
15.5803
8.13868
10.1708
6.52393
6.59897
7.36478
5.12747
4.45464
4.379
4.03927
11.0942
15.1436
9.81608
12.2579
4.81026
4.39842
11.4283
7.38435
4.72182
6.88406
12.9789
8.13094
6.29591
11.2
6.26337
11.0918
2.31518
2.29539
2.70898
2.36249
2.67184
9.09163
11.6269
5.11604
5.48946
3.73816
3.48679
2.70964
3.51468
3.27882
6.45904
3.16293
2.61762
2.35581
3.21448
5.59849
5.66486
6.42936
6.58463
6.39808
5.96667
6.18963
6.12288
6.11241
7.55234
8.42609
9.59711
9.5214
6.74358
6.77462
7.3708
24.4812
22.8346
24.049
26.0453
30.4429
27.4806
30.3359
43.4261
40.9919
36.5481
32.3049
31.6981
44.7035
33.7524
32.5193
31.2403
38.9018
38.7571
39.4791
29.3601
7.94857
9.57658
7.81935
10.1012
6.26097
6.67422
4.25193
5.27203
11.9341
8.13145
16.991
9.28704
4.66711
4.44497
14.0568
11.0408
16.9459
8.78485
19.0078
6.52766
30.6403
37.5222
41.4727
55.8865
42.0922
29.8296
24.6174
39.5085
47.1107
41.9993
45.3352
35.6071
62.5738
41.0425
79.0103
80.9924
55.2755
3.28086
12.2106
7.04963
32.4779
6.15357
5.93257
8.63239
7.84356
40.035
7.67281
2.02112
21.5501
12.1233
11.5939
15.206
14.5438
13.1314
11.6022
10.9362
10.6829
14.016
15.1377
12.5947
12.9306
12.8404
14.1866
11.5749
12.8931
12.8152
12.0097
15.4358
11.2162
11.3265
5.80091
5.69038
5.48626
5.62389
6.31641
5.86554
6.30352
5.73496
5.51117
5.6312
5.58623
5.46864
5.40971
5.36191
5.82402
5.67864
5.59471
5.49506
4.82428
5.26005
4.81181
4.98512
5.09175
6.3084
4.77572
4.95554
6.08063
6.95456
5.13459
4.84885
5.07706
5.91231
5.16085
6.01205
6.43264
6.43397
6.07263
5.70265
6.54778
5.57246
6.33766
6.22394
6.35303
5.61188
6.23717
6.21947
6.25683
3.14127
3.21445
3.17698
3.31882
3.06995
3.0286
3.15213
3.12903
3.49264
3.64963
3.1257
3.13813
3.18897
3.3032
3.50063
3.42195
7.12229
7.17541
7.3115
7.11949
7.08458
8.11339
6.97026
7.06667
8.47732
7.27721
6.59382
6.42162
7.12194
7.85501
7.68812
7.2229
7.25894
21.8382
21.9962
16.787
18.1163
19.6365
21.9357
25.197
25.5064
18.6399
19.7753
25.5626
30.108
24.8685
26.6352
23.7595
25.1514
24.129
7.30002
5.7923
5.35732
7.67414
5.17981
13.3116
19.9594
5.31792
11.1726
11.1685
8.32377
10.2957
11.3799
5.69573
3.20087
10.1956
22.5995
4.20791
8.27334
6.79158
5.63533
4.63715
4.46841
6.87211
6.56107
5.27439
5.16488
4.9266
4.81662
4.77805
5.00233
4.6508
4.49246
4.85884
4.59257
4.63836
4.86126
5.26104
4.68528
4.6835
3.83676
3.53717
3.26249
3.50829
4.08412
3.40739
3.33566
3.33218
4.28173
3.30523
3.46411
3.57153
3.81875
3.38351
3.18436
3.1217
5.47089
4.46656
4.87268
5.7775
4.85122
4.37874
9.02921
5.9111
6.27726
6.22803
14.2908
8.28454
5.04625
9.17296
4.42302
7.34709
9.09249
14.0617
16.6135
10.2811
14.7806
17.1567
10.751
15.4235
11.2987
7.90286
5.86549
4.56349
14.6703
9.78452
11.1405
3.04464
4.36671
11.4709
3.91025
10.4244
9.50766
3.81443
3.513
3.29521
8.10328
5.54749
5.52878
5.47159
6.53016
5.59869
5.60906
6.37176
5.68148
5.60505
6.37942
5.63678
5.49869
7.66358
6.89182
10.2569
6.15213
6.9252
8.55358
10.4799
9.1305
8.00585
7.11151
5.54393
4.42298
4.51124
4.69468
8.38444
6.94418
7.26026
6.89924
6.49576
4.19067
6.17501
7.60084
7.67426
18.192
17.6088
6.36799
6.44081
6.89953
20.6356
8.45601
12.1794
7.48791
3.31589
9.03953
14.793
6.13212
4.82572
4.05268
9.66904
8.43175
14.3022
16.3685
6.69329
9.13782
10.0023
4.1514
6.10835
5.67595
4.39834
4.38084
9.5264
8.62105
10.0275
15.7093
6.92251
10.2627
4.41383
4.105
7.72469
4.26725
5.39815
5.69958
4.8769
5.49945
5.08656
4.88941
4.72095
5.46494
4.63803
4.50281
4.36891
4.22912
4.33898
4.08326
4.11747
4.26354
4.26742
1.9737
2.0058
2.0307
2.00928
1.99521
2.13121
1.95557
1.94777
1.99689
1.96946
1.94508
2.12154
1.9926
2.0638
1.96754
2.06511
1.98334
2.00034
2.02502
2.33992
2.16863
1.99936
2.40091
2.16126
2.09007
2.08718
1.86242
1.7021
1.64531
1.88259
1.9657
1.63096
1.62652
1.76903
1.76327
1.62571
1.72279
1.68206
1.67912
1.69349
7.84788
8.30768
8.91672
10.4043
8.09822
10.2634
8.26338
7.52564
9.51217
8.4018
7.34329
7.56787
7.54504
7.04372
9.47591
8.26094
9.06955
3.94703
3.46535
3.95832
7.65957
6.33197
3.4681
3.75824
3.74526
3.30477
4.62661
5.04655
6.99212
3.36985
3.29278
5.26678
6.81686
2.78373
2.91801
2.90944
2.87646
3.10861
3.81903
3.05511
9.69982
7.53313
3.47754
3.10866
4.72258
5.60655
8.21271
6.0327
6.24229
7.11876
7.95209
15.2495
21.0525
10.7254
20.1245
4.37431
7.39042
4.16405
1.84356
1.79414
1.84758
1.79653
1.71547
1.8555
1.79947
1.77356
1.89862
1.9703
1.87378
1.83262
1.7823
1.83784
3.10487
3.13963
2.87972
2.83066
4.09367
2.6368
2.81152
3.72819
4.42303
3.79617
4.72505
3.3579
3.15451
3.93857
2.59586
7.04622
2.85517
19.3013
19.3013
4.07679
19.3013
4.92328
4.92455
10.3664
5.40218
6.42054
5.11986
4.31614
3.84491
7.5354
4.259
4.32842
5.83074
20.3899
24.241
25.6166
20.3902
21.2805
21.4981
23.7105
19.6305
23.4752
19.5381
10.0165
10.6856
7.68301
11.8552
4.30417
3.91293
3.51511
4.81013
7.1833
8.77185
10.4866
10.0377
8.79918
3.69503
3.87086
2.77626
8.00017
9.5269
3.86245
3.76368
3.65602
4.05719
3.846
6.55866
4.1074
4.72738
4.24005
12.2309
4.79263
3.48451
3.98916
12.2309
7.12029
12.2309
4.76712
3.42043
3.55955
5.27835
5.1477
3.1484
7.99553
7.87136
7.4591
8.00133
7.59517
7.2837
7.66944
7.53812
7.09028
7.45142
7.15713
7.5
7.77939
7.52911
7.15631
6.78189
7.02003
6.74209
7.2283
7.92918
7.89956
7.51434
7.76455
7.32844
7.23632
6.55615
6.07093
6.38259
6.13086
7.22532
7.28442
8.25052
7.87044
6.06778
6.04478
6.17356
7.16338
29.2615
29.9929
24.9817
23.6185
38.8025
31.979
36.7126
30.9433
29.0109
45.8804
35.6813
37.5563
37.195
44.0149
58.1728
55.91
4.68203
4.88356
4.87865
4.66072
4.62247
4.66607
4.68984
4.60999
4.81113
4.80534
4.5514
4.71899
4.56273
5.44981
5.18878
5.49014
5.47021
5.39012
5.09931
5.76484
5.53694
5.71646
5.47444
5.63368
5.75765
5.34515
5.49837
5.36574
4.87796
4.95078
4.75331
4.8269
5.15659
5.06597
4.73582
4.76207
5.10696
4.91926
5.00939
5.04333
4.93388
4.95604
5.0919
5.26824
9.95883
9.912
9.72861
9.10342
9.25551
9.61236
8.94484
8.78686
9.2289
9.37212
11.215
11.0209
9.5066
9.18758
9.32331
9.40308
10.8546
9.75655
9.91467
9.73032
8.27626
8.10728
7.70011
7.3029
7.93435
7.74817
8.59695
7.90601
8.83718
6.62043
7.06987
8.66803
7.38628
8.15378
8.67663
9.65894
8.95696
8.89098
9.85411
10.0409
10.4427
9.36714
9.80122
10.7351
9.59953
11.4255
12.1947
11.5647
9.7716
8.97557
10.3237
12.5687
11.0578
12.8429
11.9799
12.1898
10.1461
13.5957
12.1919
11.1592
10.7151
11.5605
12.4192
9.96838
9.72825
9.56546
10.3419
11.1169
3.32769
3.13263
3.09888
3.07424
3.50108
3.44964
3.39402
3.53735
3.58669
9.17662
9.57279
8.48599
8.5211
9.15247
8.35496
8.26509
8.70145
7.93587
7.77635
7.86167
7.82676
8.09668
8.8769
8.34311
7.89869
8.18969
8.37736
8.70882
9.23798
7.88117
8.60673
3.75021
3.80402
3.74485
3.75589
3.7733
3.91334
3.80947
3.647
3.79446
3.70163
3.79269
3.6654
3.80585
3.62461
3.6347
3.66867
3.7067
3.683
3.70077
3.68361
4.98026
4.76904
4.87081
4.67769
5.01552
4.76711
4.84508
4.94358
4.87533
4.78245
4.81076
4.624
4.69606
4.73937
4.69906
4.93183
4.83747
4.95236
4.63396
4.82199
4.6879
4.92208
4.65391
4.51083
4.59742
4.61956
2.82635
3.02641
3.05625
2.87953
2.65284
2.71457
2.4789
2.58725
2.99433
2.55312
3.04515
2.7653
2.69338
2.42149
2.46398
2.68308
2.48632
2.49271
2.48032
2.49742
2.51432
2.5625
2.55397
2.68793
2.49413
2.55979
3.22727
3.279
3.37013
3.37055
3.15033
3.18103
3.20321
3.66942
4.14004
3.67305
3.61509
3.22367
3.27981
3.29954
3.36225
3.33327
3.48183
3.27955
4.22551
4.30538
4.47856
4.25493
4.16346
4.39358
4.41897
4.13179
4.1478
4.25211
4.33696
4.15089
4.08766
6.45842
6.97941
6.53091
6.21835
6.53984
6.93341
7.446
6.79954
6.75283
6.4259
6.58521
6.9966
6.63753
3.61023
3.06815
3.46228
3.56454
3.37044
3.20248
3.41958
3.45401
3.4219
3.66736
3.64812
3.53708
3.63546
2.60538
2.26914
2.26245
2.30081
2.31113
2.58825
2.42875
2.58329
2.29649
2.31227
2.40691
2.38799
2.29362
2.30032
2.36047
2.32139
2.25212
2.29919
2.41459
2.44007
2.29343
2.31111
2.50426
2.4893
2.75817
2.37214
2.45025
2.51151
2.35491
2.4569
2.37717
2.56159
2.53912
2.49169
2.47626
2.50916
2.56642
2.55147
2.47027
2.44688
2.52698
2.59746
2.50561
2.53446
2.61356
5.50574
5.84013
5.87166
5.19188
5.48893
5.273
5.57533
5.19768
5.15355
5.28133
5.20298
4.74753
4.65705
4.92
5.10818
5.3033
4.85256
5.10087
4.93884
5.15624
5.1757
4.87063
4.88366
5.01044
5.58006
5.67446
5.71141
8.23545
5.69501
5.35044
5.45593
5.44672
5.54834
5.69752
4.59967
5.02393
5.21863
4.88489
5.95067
4.50257
4.87308
4.9508
5.41661
4.81883
5.10424
4.83358
4.87399
4.92977
4.69485
4.636
4.6738
4.85905
5.11174
5.02114
5.21985
4.82838
5.06574
4.50694
4.5707
4.32366
4.35956
4.51663
4.65056
4.63347
4.67535
4.97122
4.9748
4.66028
4.58079
4.72088
4.8284
4.76524
4.67339
4.83039
4.8222
4.76707
17.117
15.8007
19.7465
14.2162
14.5046
18.371
19.8411
16.3817
18.5633
17.31
14.4887
18.6675
15.6234
4.13188
4.20754
3.93007
4.0145
4.07183
3.8684
3.82419
4.00023
4.02219
3.92157
3.86697
4.21627
4.10356
3.84311
4.06382
4.02579
4.50877
4.0661
4.64804
4.4512
4.02477
2.41078
2.42057
2.40848
2.45691
2.44606
2.42297
2.49662
2.50517
2.43158
2.36416
2.52056
2.54607
2.36641
2.41854
2.37845
2.42955
2.47057
2.465
4.48812
5.43135
4.41573
4.74792
4.79608
5.13844
3.8513
3.71656
5.14023
3.87484
4.41794
5.54205
4.5464
4.41976
4.43444
4.21905
3.80628
4.40314
4.84636
3.8291
4.96915
4.38595
4.11304
3.78227
4.34648
4.96488
4.97882
1.78211
1.8521
1.86633
1.74879
1.88593
8.02016
8.29538
8.48912
6.35162
10.1327
6.16059
11.4053
13.4706
14.6762
12.0509
16.0614
12.8433
11.3041
13.5475
7.73904
6.0009
5.84901
6.00166
5.89299
4.90364
3.83832
4.37962
5.51205
4.92475
3.93244
3.50528
5.39545
5.9227
3.59703
3.65454
4.35212
4.48707
4.16153
4.92439
6.32873
7.30221
6.57003
9.70171
12.8132
2.21338
6.81003
3.37667
4.39406
18.9415
31.3154
21.4398
21.5402
9.7968
4.59953
7.96586
20.011
18.3554
6.90114
4.94022
5.1948
4.26508
4.08285
4.21744
3.89258
4.0121
4.54555
5.64933
5.27923
3.59828
4.36929
5.15981
4.47826
5.17641
4.01106
4.87534
4.74076
3.70167
3.77022
4.64117
3.47021
4.5774
5.03414
5.37977
5.13889
3.53685
3.4168
3.5627
3.6151
4.0839
4.03874
9.73204
9.96951
9.94088
9.29293
9.34636
9.58078
11.2569
9.14055
9.86025
10.6882
6.83471
6.78971
6.95146
7.94557
10.2154
8.48791
10.2294
10.0926
7.0196
8.16489
5.21118
7.11282
3.6325
3.6216
3.59963
3.56332
3.56545
3.50106
3.58458
3.62295
3.59211
3.59292
3.53813
3.4921
3.48828
3.59995
3.5776
3.52369
3.55422
3.52608
3.44322
3.49191
5.72364
5.92822
7.03856
4.64921
5.61596
4.74814
7.14161
5.09157
5.47989
4.46031
4.52585
5.4376
4.67592
4.52294
4.8705
9.46984
8.74509
8.93417
8.83015
10.011
7.81435
9.26963
9.63873
3.03315
3.14963
3.11956
3.14529
3.10412
3.09908
3.13794
3.22744
3.06279
3.06175
3.16683
3.08041
3.57423
3.67169
9.84849
5.40672
3.40563
4.04276
9.33941
6.95418
9.58139
10.0674
15.227
7.51838
11.5435
17.3808
7.17258
4.46737
4.45277
4.88605
2.99479
3.04194
3.00788
3.02179
3.08537
3.03946
3.00053
3.1668
3.08582
3.0777
3.12882
3.188
3.055
3.04118
3.0703
3.17658
3.22587
3.10571
1.88356
1.88552
2.03965
2.08562
1.94838
2.03584
1.86703
1.88519
1.93442
2.15765
2.01135
1.92285
2.35764
1.95638
2.00406
2.02261
2.03115
1.91558
1.92192
2.09169
2.02203
1.90305
15.8257
14.447
16.3197
18.9284
15.1686
18.074
15.9101
14.3574
17.0396
18.8471
18.4882
17.0444
16.7717
15.6471
17.0034
15.2589
6.71864
6.69828
6.47692
7.20288
6.09496
5.79973
6.54457
5.80703
5.29166
5.45133
5.68937
5.59759
5.62233
5.25605
5.41999
5.61765
5.31071
5.3913
2.27463
2.72177
2.67504
2.29785
2.14331
2.04289
2.42012
2.49814
2.40521
2.28574
2.18066
2.20077
2.11445
2.07154
2.22537
2.12271
3.8988
3.86955
3.94716
3.88835
3.73522
3.89271
3.87419
3.88748
3.91083
3.89812
3.86201
3.91462
3.90204
3.87539
3.82385
3.81821
3.78607
3.78298
3.73093
3.74125
8.80982
8.6087
7.61901
6.59697
5.01425
7.12796
5.73765
6.23533
6.69869
7.94892
5.08135
4.8496
5.86128
6.06574
5.33277
5.61302
3.856
3.94349
3.40658
3.48791
3.1367
3.50952
2.8266
3.3701
2.86292
2.65197
2.79742
2.65338
3.59525
3.03558
2.53806
3.27461
4.00276
2.15139
2.07839
3.4622
3.24124
2.9846
2.02773
1.94976
2.66885
3.12974
2.28286
2.1752
2.64527
2.82595
2.8357
2.84698
3.071
3.11753
3.06556
3.13003
2.80775
2.88086
2.6916
2.76518
2.79347
2.74868
2.98051
2.97536
2.72668
2.87143
2.94515
3.69929
3.9468
3.36262
3.11631
4.40359
4.0182
3.46869
3.45406
3.86201
3.10643
3.15156
3.05723
3.07515
3.22243
3.24404
3.08941
3.20319
3.14732
3.60677
3.31867
3.2136
3.23864
3.30442
3.31309
3.27168
3.20608
3.3274
3.30753
3.24721
3.32293
3.23853
3.25336
5.92971
5.63021
5.69439
5.83124
5.56901
5.75097
5.85248
5.77184
5.68627
5.70571
5.68464
5.5268
5.50929
5.51487
13.302
13.6476
17.8938
17.4835
18.3756
18.4896
13.2138
11.8368
15.4282
16.3643
13.5941
16.5858
14.4313
15.043
1.92384
1.965
2.0093
1.99443
2.29558
2.4537
2.29654
2.4388
1.98977
2.20797
2.17762
2.17003
2.28411
2.14818
2.02871
4.84114
5.63558
3.89687
2.39675
4.20642
5.43788
5.94215
3.60506
3.98783
3.63005
3.67781
4.01366
3.69798
3.75749
3.61988
3.47764
3.74293
5.55396
6.14152
5.11359
4.9842
4.05886
3.83953
4.65844
5.1377
3.80235
3.76802
5.0748
3.74496
3.65828
3.67447
3.59473
3.65951
3.55523
3.67564
3.61306
3.56974
3.62591
3.44684
3.35787
3.37819
3.68871
3.79419
3.91805
4.56953
3.34749
3.31793
3.30855
3.86421
3.21061
3.27508
4.27731
4.08484
3.73613
2.89035
3.42893
2.59886
2.43252
3.5984
3.41641
3.40993
3.16886
3.65464
2.3752
3.0468
2.49647
3.45143
3.72273
3.18847
3.50766
3.85446
4.06193
3.47583
4.03609
3.82082
4.1797
3.97196
4.28726
4.24732
4.13664
3.45591
4.05203
3.22444
3.27175
3.95454
3.73174
3.59394
3.42557
4.07843
4.11433
4.17739
4.11123
3.97737
4.09299
3.99616
4.02995
4.03699
4.02105
3.95718
3.97723
3.97447
3.93028
4.03055
4.03786
3.96839
3.93605
3.94558
3.91852
6.88898
6.59092
5.31428
5.70364
7.31734
6.24778
5.53269
6.55826
4.93673
5.05561
5.02246
6.70481
7.8422
7.43084
7.49916
7.5525
7.66682
7.45769
8.02011
7.87394
7.3328
7.36732
7.05134
7.10707
7.03851
7.95722
7.65449
2.28451
2.35817
2.30496
2.28258
3.05502
3.03566
2.97234
2.83624
2.8511
2.47346
2.68179
2.21015
2.23334
2.60603
2.59441
2.45001
2.8788
2.87403
3.31592
3.09439
2.93106
3.86148
3.86925
4.24557
4.09432
3.58172
3.94607
3.70002
4.00658
6.91478
6.13193
6.26851
5.89106
6.45707
7.92138
5.98837
6.07278
5.90347
6.11939
6.59878
8.08026
6.13748
14.7952
15.8361
15.2626
12.9066
13.9474
12.9975
12.0474
9.33703
9.79444
15.8767
15.0589
16.0973
16.2605
9.71136
9.77435
13.5212
11.6574
10.172
10.8552
13.6065
4.75904
4.73764
4.63187
4.7154
4.53686
4.46869
4.94691
4.5902
4.6557
4.5821
4.93787
4.65264
4.66845
4.91397
2.78426
2.14079
2.18223
2.17704
3.79447
5.61556
3.05696
2.82775
3.5536
4.02657
2.21272
2.44947
3.29577
2.8596
2.09465
3.23465
2.65039
2.25615
6.50545
7.12304
5.26202
5.30391
6.4963
6.98997
6.33766
5.29402
5.33755
5.68737
5.48632
5.31359
6.52074
6.99475
7.41132
6.26317
6.75594
5.89642
5.83806
5.43933
29.8923
6.9154
13.9939
7.05584
9.46023
2.79716
2.74372
3.0006
3.09495
2.49385
2.63113
2.54231
2.47491
3.33382
3.06758
2.97311
2.87958
2.4749
2.71812
12.1279
12.2817
12.8203
18.2851
15.6914
18.2001
6.06764
7.51262
11.6191
15.402
6.31889
4.76499
4.87261
4.95545
4.88685
4.62549
4.64093
4.75952
4.73798
4.86644
5.01261
4.8772
6.94678
7.0637
8.29013
7.88697
6.60193
6.17111
6.21063
7.69554
6.80696
6.42351
6.4925
5.92784
7.68675
8.28098
7.53749
5.6026
5.7207
5.50554
5.44253
5.62741
5.50806
5.22543
5.32873
5.28127
5.28485
5.53212
5.79173
5.39742
5.50215
5.43837
5.38917
5.69534
5.83179
5.40744
5.62802
5.51367
7.84919
7.47148
7.49849
7.08209
6.84268
6.39612
7.68993
8.16351
7.20804
6.51685
5.94564
6.85256
5.94122
7.42666
5.90844
7.07404
6.45344
8.27075
8.2142
7.92917
7.8081
8.50809
8.90615
8.37196
9.43663
9.81354
8.78982
8.24017
9.13395
8.55745
7.4909
8.16305
9.08833
7.98904
8.27669
7.70425
8.3484
5.83145
5.97288
5.77435
5.85431
5.59673
5.79263
5.95329
5.69494
5.74366
5.90537
5.88782
5.91624
6.12869
6.13711
2.65927
3.02288
2.85026
3.00131
2.92095
2.79271
3.45087
2.78294
2.87053
3.00044
3.79988
3.00507
2.83799
3.94565
3.26099
3.82059
4.32615
2.87649
3.18042
3.55556
5.56435
3.77108
4.70857
3.29079
4.83666
2.09024
2.13181
2.30251
2.05179
2.18617
2.20127
2.10914
2.15716
2.23681
2.12696
2.03759
1.99798
2.06158
1.99757
2.0736
4.0628
4.13337
3.5896
3.32974
10.05
11.2025
3.29968
11.7746
3.72903
3.96658
3.73046
6.56553
5.76387
10.6414
12.2879
8.30676
9.66495
8.57736
5.72013
5.86641
5.83504
5.70535
5.95664
6.47039
6.16201
5.98802
5.8577
5.67606
5.67711
6.32134
5.79211
6.39905
5.9305
6.48264
5.70872
5.67579
6.47062
5.89541
6.29087
4.58829
4.50041
4.50342
4.48316
4.5222
4.51656
4.58805
4.60855
4.5412
4.55308
4.60925
4.69797
4.8089
4.72475
4.68379
3.6259
3.6933
3.65085
3.63457
3.68242
3.75523
3.71227
3.60821
3.95886
3.77441
6.74347
6.89129
7.15839
6.96442
6.54769
7.07672
7.53063
7.32337
7.31841
6.85479
6.74882
6.99696
6.15308
6.37635
6.85082
5.58419
5.28233
6.08741
5.91227
5.54573
5.36999
5.01721
6.59614
6.11927
7.33405
6.94794
6.43494
4.97728
5.27981
6.34298
6.41783
5.72418
2.99365
3.09073
3.08981
3.08953
2.60249
2.89625
2.57273
2.55827
2.5471
3.22075
3.33094
3.10218
2.5924
2.78942
3.33739
44.3274
15.0157
20.9569
10.039
17.8918
35.7637
31.7613
26.3129
12.974
11.5555
10.039
23.669
15.8522
14.7597
27.3266
4.93652
4.79514
4.92589
4.87528
4.71871
4.84018
5.36209
4.94883
5.71052
5.09213
5.47242
5.01063
4.85894
5.11749
5.01054
4.8245
4.79321
4.8828
5.03973
4.67713
4.63957
4.97255
4.87542
4.97146
4.83427
4.81325
4.84329
4.68885
4.74615
17.2157
12.6643
19.6216
33.1291
23.9384
19.0297
16.8499
33.1291
19.1738
3.08462
2.86215
3.16011
3.12263
2.82854
2.85116
3.17848
4.03897
4.08937
4.90059
4.80015
3.60761
3.73914
4.57161
3.25907
4.15838
4.20601
3.30389
59.7771
66.951
81.158
38.215
64.7925
75.0825
105.35
101.138
45.083
89.1221
60.3072
61.1962
85.1141
88.1011
122.341
124.519
212.202
76.5919
92.2331
122.495
204.111
62.2226
65.9201
62.0293
81.1258
63.6792
121.402
46.9799
46.1195
82.0666
62.5246
8.86027
5.76968
7.26173
20.1371
8.53976
26.0877
5.00642
8.52814
14.7414
8.18497
9.50776
9.27968
10.5371
9.53769
10.0908
8.89162
8.39175
9.69394
10.6177
9.74716
10.587
10.4502
9.85238
10.2958
9.90916
14.9589
15.0185
15.2524
13.9353
16.969
17.1585
14.4031
13.2129
17.156
14.7828
15.3958
11.6032
12.6521
10.7847
13.7035
9.11293
14.9631
13.1
8.56349
24.9358
23.4755
32.8714
28.7039
28.0428
26.8669
28.3095
34.7052
37.1004
35.9946
36.8185
41.8266
45.2203
8.3592
7.47001
12.8651
15.5052
7.94117
8.39178
14.7136
11.4517
7.49366
7.28047
11.8842
8.51159
8.07833
8.25948
9.6681
14.1149
16.1708
19.6235
15.4235
19.0708
16.3781
10.4463
22.8553
13.1774
22.5286
23.2161
22.4176
28.248
24.9043
9.44636
8.58853
20.6691
26.5369
28.2312
20.7138
3.3479
3.31135
3.22633
3.27375
3.30171
3.33632
3.36685
3.31675
3.18594
3.18743
3.31909
3.36629
3.28011
3.36718
3.34247
3.69323
3.55825
3.58067
3.24874
3.4496
3.60485
3.30441
7.35063
6.86922
7.19012
6.73623
7.12871
7.33492
7.81294
7.68494
7.34489
7.03224
7.12064
7.67067
7.11113
7.8126
7.50174
7.40824
7.167
3.57315
3.76321
4.06126
4.05675
3.89454
3.7018
3.54481
3.58611
4.14634
4.36396
4.86479
4.77899
5.3782
3.25544
3.79657
4.0223
3.94732
4.27557
3.89885
14.9305
12.8665
8.20363
8.50142
7.68203
7.44614
8.41799
10.0941
15.9596
16.2867
15.1295
15.5122
17.5157