/*--------------------------------*- C++ -*----------------------------------*\
  =========                 |
  \\      /  F ield         | OpenFOAM: The Open Source CFD Toolbox
   \\    /   O peration     | Website:  https://openfoam.org
    \\  /    A nd           | Version:  10
     \\/     M anipulation  |
\*---------------------------------------------------------------------------*/
FoamFile
{
    format      ascii;
    class       volScalarField;
    location    "16";
    object      p;
}
// * * * * * * * * * * * * * * * * * * * * * * * * * * * * * * * * * * * * * //

dimensions      [0 2 -2 0 0 0 0];

internalField   nonuniform List<scalar> 
75457
(
-36.678
-33.1491
-29.2851
-26.5026
-21.7043
-23.3799
-32.4676
-32.3352
-20.967
-15.368
-19.3231
-21.1611
-20.7887
-18.3798
-4.1761
-4.62086
-4.35398
-4.55322
-4.9665
-4.49085
-4.02144
-4.66436
-4.69084
-4.99029
-4.76433
-5.13117
-4.86302
-0.870136
-0.960761
-0.413094
-0.0866284
-0.297054
-0.451123
-0.586383
0.0338752
-0.986493
-0.866739
-1.05401
-1.1914
-0.314022
-0.572112
-0.273632
-0.744159
-11.4626
-11.5521
-10.3629
-10.5305
-11.0772
-5.93111
-6.70287
-7.0707
-6.34473
-6.4843
-6.72154
-7.08769
-7.09953
-6.88606
-7.15414
-6.32515
-6.67686
-6.53409
-6.23766
31.0729
31.3421
31.0808
31.4151
31.653
31.6767
31.3276
31.3667
31.6392
31.4266
31.154
31.4165
31.4046
31.0838
31.2934
-9.65011
-10.9332
-9.14492
-10.9104
-12.8312
-6.6215
-6.97487
-9.01224
-9.79253
-9.75563
-9.56539
-6.83258
-7.9859
-6.72099
-6.74755
-7.74798
-6.86666
-7.0359
-7.1865
-7.22054
-7.56373
-7.15977
-6.99363
-8.17069
-7.39838
31.7642
31.6532
31.9155
31.9319
31.7973
31.6479
31.5677
32.0198
32.0222
31.6343
31.6451
22.3887
23.0495
25.5114
25.0854
22.4515
24.0289
24.0628
23.5325
23.8887
25.5765
25.3606
25.9031
26.4424
25.1972
24.6359
23.4397
25.8573
24.8551
13.9285
13.8922
13.3132
14.1994
13.7944
15.3198
15.0054
14.8933
14.8842
8.02302
7.56533
8.13453
7.67585
7.10887
7.6185
7.64571
6.69665
-7.06307
-7.10558
-6.49809
-6.69709
-7.08726
-6.73909
-6.44699
-5.95704
-4.41745
-4.46173
-6.00341
-5.72856
-5.26238
-5.96541
-4.8423
16.5069
18.1065
18.3479
17.686
18.1059
14.392
15.7775
17.3374
16.3453
17.306
14.629
13.3156
13.9077
-9.45077
-9.92126
-9.79178
-9.99921
-9.76871
-9.89981
-9.22808
-9.9255
-9.76704
-10.0089
-9.99504
-9.8337
-9.75815
-9.87604
-8.70518
-7.3273
-9.81318
-7.22719
-7.54132
-9.14003
11.8939
12.6622
11.3177
12.1062
10.3199
11.1182
13.488
13.1875
12.3006
9.56099
9.53194
-7.72798
-7.57536
-7.98807
-7.94857
-7.89516
-7.82346
-7.6636
-7.53896
-7.15153
-7.97171
-7.72207
-7.5056
-7.86007
-7.47395
6.39615
5.47453
5.85998
4.19491
4.73495
5.45937
5.34324
6.58511
6.15575
5.25902
4.64634
4.0217
6.22271
4.66831
-7.1576
-7.22648
-6.96427
-6.93682
-7.23149
-7.16662
-7.24384
-7.20774
-7.3699
-6.93122
-7.17057
-6.66976
-7.28814
-7.34719
-7.10516
-7.07685
-7.22674
-9.86834
-9.62345
-9.62922
-9.55296
-10.7961
-9.25341
-9.20076
-8.61065
-9.48099
-9.95017
-8.98385
-9.61819
-11.3171
-11.1206
-11.1998
-11.3806
-10.6236
-11.0271
-11.3871
-11.084
-10.5913
-11.3134
-11.0457
-10.8386
-10.881
-4.47826
-4.2226
-4.52693
-3.95846
-3.97913
-3.85118
-3.64754
-3.60674
-3.57226
-4.07493
-4.37059
-4.25133
-3.49928
-3.93108
-3.85864
-0.444327
-0.373825
-0.228179
-0.426939
-0.210613
-0.388998
-0.618012
-0.782804
-0.155174
-0.0867512
0.0698872
-0.0155194
-0.161007
0.132509
0.309126
0.216759
0.0476372
0.0966449
0.124327
0.0752585
-0.0708277
-0.109586
-5.05455
-5.46632
-4.49018
-4.58935
-4.85583
-4.95764
-5.50563
-5.38947
-5.69788
-6.02925
-5.58368
-7.91828
-8.07048
-8.21128
-8.2271
-8.17973
-7.88113
-7.93144
-8.31055
-8.5801
-8.24613
-8.51014
-7.58468
-7.87353
-8.0955
-8.185
-8.01469
-8.14161
-15.3763
-14.2857
-13.99
-15.6058
-17.9123
-17.3824
-17.2155
-17.054
-16.6714
-16.3014
-17.5554
-4.32365
-4.61988
-5.41097
-5.19093
-4.81014
-5.19828
-4.74421
-5.61899
-5.3757
-5.04441
-4.67121
-0.22767
-0.127578
-0.366933
-0.447847
-0.137027
-0.121982
-0.418709
-0.159907
-0.499086
-0.572426
-0.592742
-0.232508
-0.467744
-0.943133
-0.883734
-6.12443
-5.12355
-7.00935
-6.20263
-6.08312
-7.70213
-8.05147
-7.7244
-8.01367
-8.06753
-7.73237
-8.48381
49.8723
54.6463
43.3025
45.9344
48.7283
50.7703
50.4361
53.2626
45.8809
50.2805
48.5302
49.5315
45.6357
50.0841
44.3768
45.8499
47.7572
42.8195
34.6828
34.2233
34.9784
35.7074
36.6007
37.5654
34.8994
35.5311
37.994
41.4312
38.1809
38.3956
40.1057
26.0458
23.2796
20.7388
22.3684
26.9157
23.6316
22.1881
23.5989
23.277
21.3819
28.6014
28.5886
21.7627
23.2937
20.7692
26.9126
29.0313
29.105
25.1351
25.1003
25.7699
27.0523
-8.99332
-9.34446
-9.58383
-9.56093
-9.66139
-9.06729
-9.13564
-9.27089
-9.4195
-9.07896
-9.51666
-9.08396
-9.23623
-9.176
-9.33068
-9.29615
-26.9899
-30.0977
-16.0096
-24.6422
-14.3606
-21.4261
-19.6019
-16.5485
-14.3418
-19.4928
-34.1582
-29.5062
-18.9382
-26.8152
-14.7009
-16.6117
2.22473
2.06776
2.23019
3.07391
3.44628
4.0569
1.8738
1.54501
3.20675
3.17899
4.06321
3.7114
3.43875
3.36417
3.19955
2.54349
1.80778
2.61896
33.8202
37.8763
36.445
33.0321
34.3565
37.1146
40.6365
39.7077
34.6282
40.596
42.2956
40.5552
36.6832
33.4525
34.2439
35.262
26.9398
26.2965
26.7983
26.5708
25.7327
27.5054
28.0813
27.4664
26.8357
27.7818
27.2232
26.4062
27.2573
25.6851
26.3659
27.8892
28.3667
12.5071
12.355
12.0719
12.4369
12.4309
12.485
12.577
12.6467
12.6775
12.5296
12.1713
12.2457
12.7477
12.405
12.5146
11.8086
11.8116
-5.14843
-6.10654
-7.76429
-6.90707
-5.76575
-6.00143
-5.29615
-5.35502
-6.31878
-5.9564
-7.56912
-7.84335
-6.47335
-5.03098
-7.31639
-6.30782
-6.34667
-7.17663
-4.20666
-4.28898
-4.12094
-4.0818
-3.51825
-3.78374
-3.95587
-3.95091
-3.43511
-3.64124
-3.77427
-3.41244
-3.29323
-3.67008
-6.65892
-6.16481
-7.17817
-7.95882
-8.00006
-7.42828
-7.10105
-6.87383
-6.74279
-7.89047
-7.86283
-7.70438
-7.09664
-6.57026
-6.86573
-7.64771
-7.8207
-7.98634
21.4538
17.2289
18.0252
24.7801
21.1152
15.267
18.1648
18.3412
14.8433
23.1672
18.3235
15.4732
-8.91258
-8.72425
-8.38194
-8.419
-8.75251
-8.40486
-7.27705
-7.63389
-8.44641
-8.56916
-8.46757
-7.64023
-7.62834
-8.19086
-8.34563
-8.11744
-5.57286
-6.11397
-5.09945
-5.47813
-6.59997
-6.55996
-6.40409
-5.22578
-5.1525
-5.14239
-5.05717
-6.19175
-6.59933
-5.23674
-4.85062
-5.96831
4.83746
4.07786
3.41676
6.63981
7.52301
5.09388
5.80249
2.58485
4.14731
4.85131
6.42887
5.34557
6.39792
7.21521
6.94679
3.8723
3.98486
5.26929
3.37383
-2.84143
-1.88266
-2.70906
-4.36208
-3.43078
-2.34016
-4.1293
-3.67866
-2.76929
-3.13445
-2.83664
-4.12084
-2.91061
-2.5781
-1.24261
-0.983251
-1.22338
-1.7487
-1.41122
-1.54402
-1.42551
-1.33444
-1.80231
-1.21127
-1.69436
-1.38875
-2.13552
-1.10065
-1.07275
-1.25219
-1.003
-1.50392
-3.60945
-4.23113
-3.2786
-1.88952
-2.36503
-6.0464
-3.53672
-3.19068
-3.21073
-4.28594
-5.72409
-8.65728
-8.94985
-9.17067
-8.86965
-9.94534
-10.4338
-10.0009
-10.9193
-7.99319
-7.69905
-10.4067
-11.4697
-11.2175
-10.2527
-9.95828
-11.296
-10.0937
-9.83932
-10.5796
-10.513
-9.46439
-9.67963
-9.73662
-9.4283
-9.61834
-9.38824
-9.60145
-9.6464
-9.38581
-9.20426
-9.3768
-9.59927
-9.37388
-9.43659
-9.35481
-9.47473
-9.40461
-9.39434
-7.89441
-8.38278
-9.37338
-9.3209
-8.33768
-8.81352
-9.31464
-9.35272
-8.55307
-9.11509
-8.48408
-4.44347
-4.99784
-3.33052
-2.87268
-3.31347
-2.72659
-2.9317
-2.11604
-3.13834
-3.31894
-2.99998
-3.03435
-2.59225
-2.99823
-2.79507
-2.7296
-3.06714
-2.97785
-2.37791
-2.92158
-2.69119
-3.08554
-3.05957
-2.61805
-2.63707
-2.77681
-2.38169
-2.72742
-2.54563
-2.33786
-2.60787
-2.27859
-2.54282
-2.68752
-2.36105
-5.96669
-6.19912
-6.04972
-6.01349
-5.65214
-5.17015
-6.04571
-4.89848
-5.70762
-4.53458
-5.25535
-5.6452
-5.8243
-5.41323
-5.23567
-6.63199
-5.63058
-5.05157
-4.80674
-4.78591
-7.8226
-8.05436
-8.30323
-8.21723
-7.24872
-7.51307
-8.39628
-8.34252
-8.0207
-6.94698
-7.23181
-7.1601
-6.90961
-7.60874
-7.43606
-7.86379
-6.72865
-7.05203
-7.70159
-7.85164
-6.92061
-7.18735
-7.0602
-8.07668
-7.0824
-7.81483
-7.39464
-8.6591
-6.80866
-6.61966
-6.89881
-7.51663
-8.08255
-7.65644
-8.15197
-7.18564
-6.96323
-7.32744
-7.19633
-7.13966
-6.71833
-7.92621
-7.27183
-8.09628
-8.96176
-8.45918
-8.35299
-7.80608
-7.9288
-8.82535
-8.70856
-9.34742
-8.35528
22.3209
22.875
23.8255
22.7861
23.5952
22.3571
23.3941
22.2206
22.7865
23.7911
-9.34965
-9.1613
-8.88819
-8.94404
-9.48439
-9.44265
-8.95832
-9.10667
-9.47795
-8.85113
-9.29797
-9.08217
-9.06414
-9.50056
-9.08477
-9.3721
-9.46024
-9.57439
-9.01665
-9.92168
-9.66064
-9.40392
-10.0949
-8.8902
-9.68774
-8.85717
-8.66585
-9.65498
-9.91672
-8.73435
-9.72984
-9.77984
-9.36091
-9.02679
-10.0369
-9.32536
-9.33663
11.9422
12.348
13.0477
12.4646
12.1335
13.2701
9.82704
11.4035
11.6323
11.2935
10.586
12.7009
12.1708
12.7089
11.8193
11.3863
-12.8351
-13.9602
-13.0154
-12.4276
-12.6423
-10.7024
-11.297
-12.1055
-12.7299
-13.3993
-9.62187
-10.9883
-12.081
-11.3969
-12.4492
-10.4557
-10.1585
-10.2001
-11.2825
-11.3574
-12.071
-10.389
-9.86844
-9.65182
-10.7843
12.4661
11.4535
11.0975
11.1757
11.2092
9.74132
9.42189
8.84079
8.8958
9.45217
9.57418
8.66076
10.3894
9.50774
11.2011
11.3071
9.37727
10.4815
10.0888
-8.93607
-8.95035
-9.51327
-8.94754
-10.3709
-9.17977
-8.69659
-9.34267
-9.34787
-8.99774
-8.8748
-9.59078
-9.74212
-10.2367
-9.7266
-9.09713
-8.93755
-9.87375
-9.608
-7.50359
-8.57114
-8.0878
-7.93318
-7.64064
-8.20066
-7.47818
-7.11379
-8.46344
-8.04865
-8.29484
-7.83184
-8.46459
-8.37055
-8.56415
-8.50478
21.5369
22.0967
21.4036
21.2077
22.4353
23.3273
23.1331
22.1958
22.2039
23.0413
23.2153
22.288
23.1732
23.709
24.3909
23.8272
-11.1174
-12.9912
-9.3616
-9.19594
-14.2114
-17.0836
-6.28671
-7.332
-9.98403
-12.5333
-9.43605
-10.0898
-11.6026
-16.8458
-15.105
-7.84977
-12.7853
-9.79422
-13.2483
-15.6579
58.3137
52.3563
48.03
47.6947
56.7909
58.0852
51.5918
56.3997
50.5833
52.5812
50.1611
50.6105
47.4264
47.2914
53.0101
20.8377
19.5305
24.1614
25.8551
23.6931
20.6216
25.9792
22.5324
24.9926
28.258
27.199
28.4277
30.1517
27.9674
-14.194
-14.9308
-14.4782
-15.2266
-13.3399
-13.6037
-11.9799
-10.8499
-13.1732
-13.119
-11.3058
-10.8414
-13.6239
-11.9142
-11.5783
-12.2129
-5.40113
-5.12187
-5.18548
-5.33182
-5.11712
-5.41895
-5.07007
-5.40605
-5.5758
-4.94072
-4.99023
-4.94766
-5.51052
-5.32529
-5.01517
-5.19711
-5.14115
-5.47429
-5.28233
-9.98229
-9.98104
-9.61237
-10.358
-10.4936
-10.3558
-9.66605
-10.4274
-10.3207
-8.87972
-9.50226
-9.34687
-9.79105
-9.49378
-10.6501
-10.3438
-9.03378
-9.44771
-9.20048
-9.28684
-8.94428
-9.01788
-9.48173
-8.95214
-9.06492
30.5516
29.7171
29.7757
30.2297
30.4051
30.0052
29.7862
29.8245
30.5344
30.3272
30.3892
30.1352
30.2284
30.0035
30.3251
30.3872
30.4043
30.1944
29.8426
30.4777
-6.49272
-7.30791
-6.43153
-6.95681
-6.43898
-6.11815
-6.2727
-7.04988
-6.05166
-6.36553
-6.57782
-6.76229
-4.50216
-4.58846
-4.19151
-4.05312
-3.86338
-4.56142
-4.5526
-4.68845
-4.46057
-4.03386
-4.0163
-4.32442
-4.36137
-4.00196
-4.14423
-4.08838
-4.2634
-4.12349
-3.35515
-3.16704
-3.43983
-3.16274
-3.316
-3.70219
-3.76344
-3.91827
-3.98793
-3.22448
-3.69154
-3.33639
-4.02247
-3.85874
-3.52958
-3.34832
-4.04049
-3.69447
-3.29211
-2.53355
-2.61363
-2.80858
-2.03755
-2.44741
-2.14325
-2.14106
-2.98251
-2.48433
-3.0535
-3.06422
-2.16711
-2.17324
-2.34567
-3.07445
-3.06889
-6.93217
-6.96178
-7.47078
-7.52584
-7.46926
-6.90462
-7.09098
-7.96799
-7.58437
-9.34819
-9.1053
-9.19143
-9.33484
-9.4616
-9.48074
-9.31651
-9.59201
-9.27304
-9.13216
-9.46038
-9.25691
-4.30634
-4.1505
-4.3314
-4.33254
-4.2427
-4.45066
-4.39163
-4.59756
-4.57894
-4.36738
-4.84867
-4.79133
-4.74206
-4.8453
-4.65475
-4.82707
30.9089
31.1091
30.8492
30.5841
30.2279
30.2892
29.8246
29.7681
30.0466
30.5871
-7.79404
-7.51248
-7.74556
-7.51612
-7.88242
-7.76134
-8.0144
-7.99468
-8.24123
-8.22089
-7.96808
-7.75551
-7.97786
-8.41155
-8.33586
-8.11752
-8.02126
-7.93061
-5.21839
-5.50745
-5.13492
-5.20803
-5.14923
-5.14356
-5.36368
-5.16362
-5.30847
-5.71829
-5.48416
-5.5307
-5.30168
-5.4809
-5.07553
-5.16693
-5.36405
-5.16184
9.08064
8.46311
7.88837
8.8615
7.05534
6.49282
9.48632
8.95998
7.64939
9.1727
8.19748
7.2816
8.05301
8.08695
30.8474
30.7463
30.6231
30.4509
30.9003
30.4904
30.3097
30.3441
30.6524
30.4679
30.6436
30.7683
30.3377
30.3051
30.1943
30.2363
30.6164
30.4116
30.5592
30.3255
43.6007
42.2447
35.3988
38.496
28.0361
32.375
17.8585
33.5982
33.5722
30.9428
36.6919
26.7989
38.4497
43.6121
39.4055
46.9298
28.5327
39.7862
35.2806
-9.12356
-9.77963
-6.01499
-4.75612
-10.14
-12.632
-12.4569
-14.9544
-5.72928
-5.82924
-17.0246
-13.5255
-7.85688
-11.7936
-13.7541
-8.71955
-9.02757
-14.3489
-11.2659
-11.4247
-0.986165
-1.65217
-1.50919
-1.62734
-1.99964
-1.20817
-2.56759
-1.76309
-1.88514
-1.87017
-1.71262
-1.65759
-2.42131
-1.44494
-2.56933
-2.50912
-2.33943
-2.3022
-1.49989
-17.1997
-17.5128
-18.2417
-17.4838
-17.5963
-18.0593
-16.1631
-17.5524
-18.1903
-15.6397
-16.1024
-16.1167
-16.6183
-17.3416
-16.8175
-17.1665
32.5945
32.5452
32.4119
32.4884
32.7603
32.7773
32.6546
32.6829
32.4934
32.3584
32.876
32.6521
32.8168
32.8121
32.4379
32.3595
32.5265
32.6964
32.8275
32.4243
0.16836
0.0177579
0.584013
1.00342
-1.94556
-2.03236
-2.46442
-3.32725
-1.2205
0.180492
0.557528
-1.94978
-2.29549
-2.82686
-3.56047
-3.44412
-1.1119
-2.94055
-2.69068
-1.62586
32.7453
32.6329
32.716
32.7588
32.7481
32.7664
32.6894
32.8204
32.884
32.8916
32.9587
32.6676
32.8355
32.8044
32.9146
32.8971
32.7826
-5.80081
-5.76092
-5.87927
-6.16906
-6.07738
-5.79261
-5.56118
-5.93164
-6.04536
-6.33046
-5.62493
-5.18352
30.8227
30.6392
31.1872
31.1901
30.9468
30.8919
30.553
30.7658
30.9888
31.1521
31.1923
30.8229
30.6595
30.7766
30.5765
30.7761
30.5738
30.8382
30.9048
30.5649
30.8075
24.398
23.9612
24.0563
24.4722
24.5121
23.6777
24.064
25.7024
25.8731
25.6614
24.9712
24.6129
24.2472
24.1818
24.2132
24.897
24.7908
24.7905
9.66544
9.9245
10.0042
9.5907
9.85265
10.5547
10.1933
10.2334
9.98345
11.1381
10.9656
11.2124
11.046
10.1174
9.84667
50.8555
45.7863
39.964
41.3863
47.7212
45.8044
57.2487
42.6376
49.4972
44.3973
56.8219
56.6185
52.3418
45.6164
-0.730623
-0.443922
-0.907379
-1.43675
-1.33907
-1.57904
-0.804506
-0.912304
-1.1082
-0.841337
-1.61615
-1.30402
-0.990481
-0.435123
-0.640063
-1.09982
26.4729
24.4224
26.056
24.2616
23.9287
24.316
24.6393
24.6934
25.544
25.9477
28.3965
27.8881
26.9119
29.2157
29.8013
27.225
28.2568
32.0129
31.973
31.571
31.6703
31.7734
31.826
32.0457
32.0831
31.5371
31.6543
31.9934
32.0208
31.9767
31.8549
31.8111
31.9773
31.7828
-12.2485
-9.91749
-9.90935
-13.2587
-9.15106
-14.3393
-19.9072
-9.23632
-12.0783
-12.6629
-11.7799
-11.8869
-13.1437
-9.77472
-15.862
-15.6823
-12.717
-13.8451
19.1395
18.8033
20.4027
20.0782
19.3742
18.0807
18.4798
20.0213
20.5051
20.1115
19.8627
20.1691
18.4946
18.2477
17.617
19.4074
18.2897
18.9032
17.8749
19.376
18.6807
18.4493
-5.20687
-5.37476
-5.24284
-5.13625
-4.59408
-4.66029
-3.51244
-3.85642
-4.8736
-5.6361
-5.09674
-5.10062
-3.98209
-4.24371
-4.02703
-3.99088
-4.67106
-5.23244
-4.54694
-4.62265
-5.08688
-4.91579
-4.71645
-5.02939
-5.28898
-5.10649
-5.21392
-4.40337
-4.44649
-4.34447
-4.5306
-4.50509
-5.23101
-5.19793
-5.15029
-4.83242
-4.439
-4.92368
-4.96517
-4.82652
-4.87959
-5.03779
-5.26322
-5.30594
-4.81669
-5.17232
-4.81856
-4.9622
-4.71144
-5.17143
-4.40001
-4.71688
-4.51885
-5.24191
-4.875
-4.52568
-5.23272
-6.28497
-6.68909
-6.55755
-8.14406
-4.97941
-3.46149
-7.44904
-7.2422
-1.78243
-2.74538
0.027487
-3.66232
-0.931412
-4.02151
-3.36717
-5.72012
-5.39859
-3.57921
-2.89882
0.626771
-1.78263
0.215009
7.60071
6.01636
5.36073
5.83299
6.4291
8.00045
7.87902
6.85895
6.1433
5.31491
5.70691
5.84424
5.49679
6.52219
6.37754
7.45902
6.252
5.51797
6.16588
-7.47889
-7.04953
-7.26484
-7.298
-7.41846
-7.46994
-7.6537
-7.94914
-7.4803
-8.03511
-7.54767
-7.39628
-7.42592
-7.36224
-7.4163
-7.38731
-7.42843
-3.51309
-3.71198
-5.14254
-4.63127
-4.44764
-4.70463
-4.93204
-4.61009
-4.00177
-4.81936
-4.19275
-4.82501
-4.50536
-4.55161
-4.62384
-5.39933
-5.46296
-5.99803
-4.69478
-5.36376
-4.31712
-5.55218
-5.31923
-5.63763
-5.67152
-4.00662
-5.14858
-5.3562
-5.0921
-4.54718
-5.64964
-0.166312
-0.474072
-0.187878
-0.0160008
-0.138208
-0.221818
-0.312467
-0.327567
0.0101438
-0.166782
-0.402291
-0.352078
-0.514035
-0.577846
-0.13216
-0.288194
-0.656146
-0.555187
-0.542075
-0.548111
-0.248823
-0.0603235
-0.669448
-0.0674871
-0.289995
-0.231952
-0.49958
-0.640905
-0.290288
-0.432523
-0.247057
-0.0948585
-0.0796179
-0.320939
-0.611566
-0.304871
-0.287223
-0.627367
-0.083586
-0.324832
-12.54
-13.2298
-16.0763
-16.8768
-16.6518
-17.5118
-13.65
-14.415
-14.865
-11.447
-12.9742
-13.7475
-16.0525
-15.3135
-15.4973
-14.1167
-13.8722
0.798131
0.809054
0.410486
1.69835
1.04981
0.178085
-0.0914692
1.76897
1.47641
0.515672
-10.7284
-10.678
-11.2944
-11.5853
-10.52
-10.4816
-10.9819
-11.5299
-11.4825
-10.9943
-10.8482
-10.6296
-10.5806
-10.3067
-10.2634
-10.7686
-10.5084
-10.5952
-7.91584
-7.91125
-8.0535
-7.75207
-8.12602
-7.74245
-7.94551
-7.67868
-7.38429
-7.42863
-8.18562
-8.2463
-7.94468
-0.695478
-0.40262
-0.820079
-0.493649
-0.980014
-1.14032
-0.820288
-0.277651
-0.201213
-0.693123
-0.976273
-0.766098
-0.245106
-0.135488
-9.77587
-9.67621
-10.2179
-9.91741
-9.71521
-9.73735
-10.1826
-10.0012
-9.93421
-10.0523
-10.021
-10.3821
-10.1117
-9.74543
-10.6921
-19.9499
-19.1529
-18.8261
-18.7322
-17.9562
-17.4968
-20.6462
-19.801
-19.7363
-20.2144
-20.7033
-20.4789
-18.4937
-18.195
-18.7254
-18.9589
-19.0779
-19.9986
31.6431
31.6391
31.8946
31.2416
31.3559
31.3169
31.4254
31.246
31.5663
31.5439
-7.60278
-7.66161
-7.65778
-7.88982
-7.55663
-7.86408
-7.52423
-7.60905
-7.41507
-7.49846
-7.53755
-7.82397
-7.894
-7.65622
-7.90958
-7.52141
-7.64984
-7.69243
-7.5009
-7.67021
-7.73842
-7.67469
-4.79021
-4.81215
-5.02227
-5.16232
-4.36766
-4.39743
-5.09804
-4.87011
-4.998
-4.61701
-4.23902
-4.43407
-5.085
-4.37914
-4.50486
-4.62779
-4.88455
-4.15242
33.3021
34.2713
35.5364
34.2312
32.8075
35.2868
33.4655
34.4113
30.7235
32.5901
34.1608
31.3451
31.6729
30.4285
29.1527
32.2596
30.0671
28.9352
30.0087
33.6968
31.5337
30.5766
27.9837
33.3024
34.0371
35.4671
34.9084
39.3588
38.5824
35.7689
38.3699
31.5692
30.8265
39.2101
40.2308
36.8055
39.515
32.6163
32.731
32.7875
32.599
32.7051
32.5985
32.7743
32.7245
32.5727
32.7017
32.5187
32.5555
32.7755
32.7139
32.7169
32.7744
32.1765
28.0163
27.595
29.9437
31.0496
32.8916
30.8436
30.9329
27.2467
26.5718
31.2648
29.1041
30.6726
27.9026
29.994
27.7436
27.4863
28.7789
29.3536
28.228
28.9085
30.0317
29.8702
29.1494
28.4129
30.048
30.4518
29.9486
24.7184
24.2681
26.5086
27.8797
16.0048
14.9984
25.0901
24.935
15.7386
17.9604
20.5017
20.4306
22.1337
19.6161
17.1804
15.074
30.5126
29.6721
30.0318
30.546
29.7475
31.069
30.6657
29.8681
29.8853
32.7286
32.2972
31.9773
31.4267
30.3079
31.4412
30.8775
31.9348
31.3215
30.6671
32.217
10.4942
12.3451
7.0444
4.12989
5.31651
8.10511
15.4896
7.14635
10.9974
10.9486
4.71919
9.70567
10.4261
7.36221
10.3314
16.8878
16.9553
15.4382
13.4505
11.792
20.7552
17.8702
17.9491
15.1324
19.078
19.1545
19.1796
16.5458
15.1031
16.1692
16.2811
17.0571
17.3875
31.9034
31.9499
31.7587
31.6533
32.3202
32.2931
31.8616
31.7023
32.472
32.4799
31.9183
32.2041
32.4619
32.4276
32.3232
-9.96868
-9.78184
-10.2228
-10.1031
-10.5753
-9.64642
-9.56653
-11.2972
-10.9046
34.2662
33.3925
32.3849
32.3289
33.068
32.4469
34.6802
32.139
35.9022
34.4603
32.2507
34.1074
34.7452
35.1062
35.5708
31.3599
31.667
33.4455
35.6103
34.281
31.8514
32.7271
6.57895
7.28016
6.62094
4.70786
5.72553
6.63176
3.52623
4.77634
5.08143
2.99002
4.181
2.19401
3.02223
1.93258
1.49561
2.28443
3.49891
5.06815
1.17444
3.96598
30.7038
29.0217
33.7443
29.219
31.1065
37.5357
34.8001
30.9858
34.7209
30.3176
32.766
38.6244
36.4521
37.1793
40.598
33.93
33.2006
31.4747
35.9567
29.9402
33.1304
30.8418
34.7349
39.1482
40.0446
38.1541
-8.28074
-9.18972
-8.74068
-8.34322
-8.3622
-9.06328
-8.65597
-8.23222
-9.69187
-8.09278
-8.37882
-9.2248
-8.41035
-8.11389
-7.99613
-8.21647
-8.4051
-9.20134
-8.47872
-7.84074
-7.83658
-7.78716
-7.71722
-8.34781
-7.92804
-8.32194
-4.77457
-4.54382
-5.19767
-5.64049
-4.67994
-4.90148
-4.57628
-3.40241
-5.26513
-2.74902
-5.24342
-4.1844
-3.68292
-4.38707
-5.26851
-5.21551
-4.56938
-4.46516
12.7092
12.2067
8.77416
10.7813
9.424
7.46344
4.2001
8.89918
9.1668
6.74898
1.86347
5.61663
7.0241
28.0227
28.8096
29.1515
27.7874
29.4497
29.2267
29.6157
28.755
28.8838
27.8741
28.0588
29.946
29.3139
-11.3255
-11.1847
-12.146
-11.4249
-11.5009
-12.1477
-13.4035
-12.8952
-14.3104
-12.2518
-12.4038
-12.0211
-13.4526
-11.4041
-10.036
-9.77116
-10.2575
-10.7192
-11.0789
-11.1733
-11.3919
-10.0908
-10.2673
-10.6253
-10.1162
-9.73961
-10.3113
-10.1362
-9.44862
-8.93456
-9.22781
-9.47412
-9.46481
-9.08892
-8.8324
-8.84008
-8.57472
-8.93863
-9.12707
-9.30097
-9.46273
-9.19486
-8.78206
-9.06888
-8.07483
-7.73472
-7.77688
-7.64521
-7.68285
-7.58744
-7.60961
-7.94728
-7.68444
-7.59824
-7.76713
-7.73955
-7.73278
-8.26449
-5.04794
-6.71935
-6.8681
-5.22782
-6.35881
-6.44304
-7.14813
-4.72625
-4.68626
-5.41237
-5.44045
25.5262
27.1203
26.2078
27.3274
26.5795
27.4824
26.5905
25.8356
26.9489
26.0619
27.4545
25.2389
26.7791
35.5231
38.3659
40.7018
49.0061
46.8143
35.3148
52.4126
51.6007
38.7285
44.3751
36.898
39.0955
47.3225
51.2245
54.0255
42.3891
44.2316
40.9308
50.6368
48.6083
46.8118
43.8226
36.2308
36.2552
36.1872
34.9088
34.6416
33.3706
33.7861
34.2691
33.5644
32.5601
32.6545
22.5062
21.8387
21.5422
21.1326
23.627
23.1155
21.4
22.8274
21.997
21.0761
20.2941
20.5741
22.304
23.7114
23.9007
21.091
20.5413
22.8573
19.9805
34.1045
34.3941
34.2745
34.2689
35.0128
34.8444
34.628
34.4545
34.4515
34.8552
35.6142
35.3161
35.7513
-6.80302
-2.65776
-0.185788
-4.03982
-2.07489
1.83193
1.65641
2.19194
3.06028
-1.37221
0.952422
-6.84811
-10.1284
-1.47048
1.79082
-4.64133
-2.25147
-10.4608
-5.53267
-11.1955
-4.23763
-8.22179
-8.09928
-8.01678
-8.19978
-7.87364
-8.00286
-7.97406
-8.36793
-7.89621
-7.65618
-8.22903
-8.00289
-7.95779
-7.85832
-7.95181
-7.98004
-7.63796
-7.77368
-10.0814
-11.6123
-9.20038
-9.56161
-8.76703
-10.8256
-9.58881
-9.59246
-9.46863
-9.64051
-10.7571
-12.9709
-10.64
-10.5198
-9.75838
-7.7972
-8.87694
-8.65291
-8.25298
-9.26926
-11.0105
-8.98285
-7.16953
-7.8783
-7.5925
-9.58814
-8.08619
-3.30285
-3.69005
-3.93742
-3.89418
-4.27735
-11.3872
-13.4614
-12.1479
-13.5532
-18.0407
-11.3862
-15.1888
-18.4408
-17.7633
-22.4036
-23.8428
-20.2891
-19.8054
-20.5927
-15.7144
-1.60475
-1.5387
-2.09896
-2.83639
-2.21007
-2.19452
-2.35012
-2.0642
-1.99698
-1.53526
-0.894508
-2.32917
-2.1178
-1.46306
-0.128189
-1.33679
-1.96054
-1.45462
18.1469
16.1253
11.9737
19.0858
5.87106
-4.56175
18.4379
8.66657
17.4642
11.4357
12.7391
-17.3156
-9.9372
-28.48
6.49994
5.90863
3.01638
-7.06395
0.148005
5.42737
-17.4211
-17.0011
-17.0729
-15.5476
-15.9398
-14.8002
-14.667
-14.4804
-15.8848
-16.1062
-14.0936
-14.7622
-15.2721
-14.356
-10.0517
-8.39437
-9.06285
-10.7441
-6.56949
-7.26479
-8.64119
-10.9437
-8.49717
-8.05236
-10.8109
-9.58617
-5.82155
-6.49918
-5.78189
-6.34254
-6.41481
-6.66237
-4.59511
-5.63597
-4.82094
-7.36632
-10.6879
-5.90524
-11.6813
-9.8625
-11.6638
-11.0076
-1.63723
-2.13883
-1.99054
-4.00904
-6.18498
-6.68432
-8.52497
-8.61134
-3.31807
-6.34037
-3.83219
-3.94961
-0.640843
-2.28639
-2.53359
-2.19547
1.1504
0.945946
-0.0587838
2.91208
2.94249
-0.497132
-2.72844
0.148095
1.25449
2.75138
3.31005
-1.14876
1.25836
0.950583
-0.505444
0.690671
13.9946
14.6212
11.6973
12.1062
14.6905
12.8348
12.3572
12.9734
13.4697
12.9628
11.915
12.5106
12.6396
11.7022
14.5258
-10.3468
-7.55886
-8.36322
-9.72297
-10.8271
-9.85827
-7.44687
-10.0582
-4.76982
-4.42058
-5.12713
-5.05793
-5.13883
-5.50443
-5.45076
-4.7342
-5.44813
-5.59378
-4.99138
-5.76145
-6.8442
-6.43293
-5.22336
-5.31011
-6.51504
-6.35896
-6.51422
-5.59976
-6.2537
-5.13657
-5.64076
-4.73874
-6.06692
-5.66067
-6.20838
-5.45581
-5.18052
-5.80211
-7.96141
-7.70559
-8.23871
-7.98764
-7.78417
-8.2109
-8.82903
-10.1105
-9.46309
-8.82866
-8.45598
-9.13569
-9.07998
-9.90598
-9.42848
-8.60964
-9.04625
-9.36167
-1.45429
-1.28873
-1.2894
-1.47207
-1.5831
-1.65253
-1.25276
-1.30334
-1.63272
-1.68707
-1.43383
-1.81731
-2.19245
-2.23954
-1.33099
-1.81072
-1.6384
-1.48196
-2.21484
-2.07941
-1.64686
-1.44271
34.8922
34.5395
35.0157
34.6448
34.0767
34.741
35.2566
34.1506
34.2786
34.1732
33.5968
33.2992
33.5193
34.512
34.0178
33.7764
-13.7707
-13.2716
-12.8628
-13.639
-14.7815
-13.696
-11.9327
-12.0229
-11.2287
-13.8393
-12.3894
-12.0167
-13.2833
-11.457
-14.5566
-13.2976
-14.1302
-15.4606
-4.77567
-4.90433
-4.33366
-4.17821
-4.59138
-4.68722
-4.87491
-4.15715
-4.22469
-3.89774
-4.95031
-5.05174
-4.56823
-4.99773
-4.41074
-4.93926
10.5949
11.3151
12.9661
11.4042
10.1091
12.2572
10.6962
12.6901
13.1982
11.3864
11.919
11.6234
11.3821
12.949
10.8758
9.48348
10.8311
9.31344
9.72937
10.7289
7.0158
5.28271
2.66081
2.41588
1.0155
0.923307
4.83671
-0.17996
10.5754
9.32558
-1.80107
4.12485
8.95115
7.50835
1.19605
4.8043
-10.431
-10.3421
-9.73778
-9.39268
-9.5065
-9.53608
-9.49093
-9.554
-9.30129
-8.47777
-8.43708
-8.66713
-3.70254
-3.56541
-3.83328
-3.27359
-3.52159
-3.74481
-3.84922
-3.93715
-3.22717
-3.36501
-3.4649
-3.39463
-3.99331
-3.51117
-3.19599
-3.34342
-3.7047
-7.93478
-8.12869
-7.76455
-7.77953
-7.82411
-8.19998
-8.10858
-7.72218
-8.06316
-7.79208
-7.77151
-7.95542
-8.27305
-8.51775
-7.8261
-8.14405
-8.5593
-7.72499
-2.9611
-4.65159
-3.96445
-3.19495
-4.83186
-4.6265
-2.76696
-3.53742
-4.97386
-2.43443
-2.19578
-2.98457
-2.44385
-3.32618
-2.39136
-2.44257
-2.92492
-3.30943
-4.34277
-3.79792
-5.85496
-5.74103
-2.96231
-3.12373
-4.80361
-4.51674
-3.42955
-3.8756
-5.3758
-5.25676
-3.97574
-3.72757
15.8705
15.5364
10.039
12.8991
14.7892
15.6029
15.4494
14.1361
11.2319
14.1246
10.9746
13.5205
13.3894
11.9268
35.2352
34.8666
33.7479
33.9518
33.9753
34.3211
34.984
34.6914
33.6607
33.875
33.7526
34.4434
34.2615
34.8097
-1.52336
-1.41232
-1.9267
-1.86262
-1.78623
-1.99557
-1.67681
-1.8701
-1.63721
-1.96862
-2.17727
-2.07941
-1.59332
-1.71209
-2.06048
6.05108
6.45068
9.08212
9.14791
5.89613
7.13617
7.17914
7.62061
8.88123
9.12198
5.12121
5.40978
5.94276
6.52516
7.7039
6.31992
7.17811
-6.02127
-5.65509
-6.25769
-6.26318
-8.23723
-7.39205
-5.89517
-6.2006
-7.54197
-8.34663
-6.65899
-6.35959
-6.85824
-6.71329
-6.2019
-5.39767
-6.49068
-7.85097
-7.17843
-6.61505
-7.56435
-5.99122
-9.57409
-8.54825
-8.80258
-9.35303
-10.9374
-11.7567
-9.53719
-9.26748
-9.20974
-10.778
-10.0908
-10.4028
-10.3514
-10.887
-9.99748
-6.55696
-6.61334
-6.54047
-6.62759
-6.36721
-6.40816
-6.27183
-6.38944
-6.25176
-5.97894
-6.14796
-6.18605
-6.12487
-6.44042
-6.04421
-6.11608
-8.36185
-8.3769
-8.50222
-8.53989
-7.87109
-8.51282
-7.70458
-8.46692
-8.34126
-8.19377
-7.9692
-7.78142
-7.11168
-7.48241
-7.23095
-7.91029
-8.02872
-7.96661
14.1619
14.2437
13.2632
12.9192
10.166
8.35125
15.2123
14.4477
7.51508
15.3923
12.8936
11.5754
8.92993
11.6073
13.8521
14.4599
13.1404
9.29582
10.5535
10.0984
8.48726
8.48247
9.75188
10.4366
9.18584
12.0495
11.8948
12.0559
10.4059
11.7904
10.9332
9.49279
28.8653
28.2416
27.553
28.5851
29.8078
28.4879
30.0187
30.0508
28.5993
27.8498
26.9386
28.4949
27.3442
31.1675
30.1655
-5.05589
-4.81188
-4.54141
-3.99967
-5.31925
-4.83793
-4.21847
-4.14632
-4.69849
-4.30441
-4.74627
-3.73585
-4.00944
-3.54979
-3.67178
-4.20632
-7.21294
-7.01292
-7.93512
-7.13054
-6.95207
-7.09114
-5.45337
-7.00738
-7.04004
-7.57333
-5.43402
-5.90964
-6.52582
-24.8898
-18.4177
-16.7232
-10.9148
-24.8634
-30.2821
-6.16936
-13.642
-10.2601
-15.8252
-17.3027
-22.013
-19.4093
28.8834
27.8057
31.7358
29.0493
30.4151
31.9801
29.956
27.3014
25.144
26.393
29.0311
30.5356
29.515
21.1675
23.0637
29.3795
28.9265
22.7979
21.2813
23.8562
9.86155
9.73124
9.53586
8.64291
9.62122
9.0009
8.6865
9.35327
9.65695
9.60704
9.16161
9.95232
9.7381
9.30735
-2.74083
-2.28854
-2.43613
-2.70675
-2.2512
-2.78762
-2.9481
-2.98269
-2.6717
-2.80571
-2.99733
-3.16058
-2.94494
-2.24413
-2.37794
-2.12188
-2.05603
-2.62635
-11.021
-11.0064
-10.7242
-11.0596
-11.9955
-12.0776
-10.9409
-11.407
-11.0936
-11.4349
-10.4632
-10.9858
-11.6905
-10.1473
-10.8723
-10.5104
-11.248
-11.5008
-11.4551
-11.2516
-3.89711
-3.39099
-3.14516
-3.567
-3.57201
-9.655
-9.2459
-10.7939
-10.1384
-9.24426
-10.1866
-9.1465
-9.47867
-9.70334
-10.263
-9.22764
-9.65598
-9.13646
-9.0043
-9.43513
-9.05247
-9.70921
-8.88737
-9.57582
-8.18573
-9.70325
-9.90209
-9.22519
-10.1668
-9.69176
13.3492
13.6919
13.7143
13.408
12.8411
12.7142
13.1412
13.5914
14.1364
14.1296
13.5534
32.3389
32.9813
31.3942
31.3032
32.1624
33.4373
34.0148
32.3745
32.2033
34.6679
33.5317
36.2914
32.3465
31.6592
33.5115
14.5038
13.7204
10.7923
12.1604
11.6051
12.9881
11.3221
9.88249
10.0762
11.3721
13.0254
12.0911
13.4723
10.2331
10.7248
12.165
8.58613
8.61656
10.6478
8.16204
6.88681
25.2123
26.2218
25.6368
24.638
25.1127
24.4625
21.8686
20.9078
19.2646
19.8333
20.167
20.0067
22.9497
22.9849
20.9691
21.5928
23.8691
40.1853
42.3393
42.7632
40.2231
39.3467
41.0595
40.2821
40.988
42.3243
39.5814
43.2554
40.058
39.0884
45.7406
44.3309
44.2231
40.8892
43.9273
44.8984
41.3326
0.487943
1.22014
4.92447
3.7823
10.2877
1.02809
2.52274
7.73828
5.79786
8.26554
13.5141
12.9149
7.66853
11.1504
-9.56866
-9.49512
-9.42737
-9.28493
-9.48778
-9.56734
-9.32811
-9.28176
-9.38046
-9.14757
-9.20776
-9.12959
-9.16561
-9.0544
-7.3637
-7.04411
-6.97193
-7.30789
-6.86661
-7.31771
-6.9138
-7.408
-7.13771
-7.26423
-7.13766
-0.11483
-0.0411016
-0.319852
-0.374173
-0.718672
-0.059885
0.0362521
-0.357198
-0.134802
-0.407076
0.0622016
0.0941869
-0.0992313
0.105634
-0.62624
-5.95297
-6.03656
-6.05716
-6.18153
-6.03546
-6.24102
-6.38567
-6.11547
-6.27681
-6.77795
-6.81787
-6.64461
-6.65007
-6.26697
-6.07334
-6.13173
-6.25367
-6.13868
-7.52342
-10.5511
-7.24076
-8.64036
-7.32588
-10.2684
-8.69076
-7.77413
-6.52439
-7.50852
-9.32669
-6.29946
-8.21435
-8.87997
-8.17246
-9.23063
-7.70522
-8.25986
-5.40652
-8.30701
-7.58788
40.809
44.4601
43.0616
44.881
40.7492
44.9365
45.9821
43.3051
47.2545
48.9842
45.4734
37.4179
38.2181
42.7324
38.043
4.24169
4.59498
2.61573
3.03365
4.92305
3.12759
5.41447
3.74345
3.66314
3.12498
22.7703
22.7255
23.3824
23.3902
21.9547
23.2014
23.782
23.657
23.6957
23.62
21.1311
21.6667
21.4123
21.9488
21.6086
-16.7027
-16.4761
-17.5572
-17.6027
-16.9833
-17.2803
-17.4862