/*--------------------------------*- C++ -*----------------------------------*\
  =========                 |
  \\      /  F ield         | OpenFOAM: The Open Source CFD Toolbox
   \\    /   O peration     | Website:  https://openfoam.org
    \\  /    A nd           | Version:  10
     \\/     M anipulation  |
\*---------------------------------------------------------------------------*/
FoamFile
{
    format      ascii;
    class       surfaceScalarField;
    location    "16";
    object      phi;
}
// * * * * * * * * * * * * * * * * * * * * * * * * * * * * * * * * * * * * * //

dimensions      [0 3 -1 0 0 0 0];

internalField   nonuniform List<scalar> 
146459
(
-1.99664
2.6422
-1.39946
0.753907
0.787598
-1.24348
-1.54076
-3.21409
4.83055
1.02573
-1.1491
-1.27739
-2.13524
-0.915729
1.78442
1.26655
-0.365288
-1.76995
1.76475
-2.34395
-0.664281
6.54272
3.18697
-8.33372
-1.39597
-2.08051
3.53173
5.09151
-0.0426502
-2.46564
0.845999
0.703912
-2.54113
-1.69447
2.94705
1.43068
-25.6739
47.6177
-24.5866
2.64277
-28.0028
20.2745
-17.9456
28.2153
10.697
-16.927
-21.9853
55.1656
10.2562
-37.2065
-14.0269
-23.3092
9.33329
21.2633
-6.69127
-3.87501
52.5932
23.8357
-19.6479
-1.07025
-28.4306
-35.1299
40.2513
-10.585
12.4028
-30.2485
-38.6144
8.38151
41.562
-9.55466
-19.6046
10.0818
6.31849
25.1618
10.0817
23.5836
-4.04387
-29.6214
0.319026
24.0211
-14.2584
16.5824
7.35173
-0.350533
-10.0578
9.28205
17.3581
20.0607
-17.7442
5.03519
-11.3459
22.6785
8.72817
28.9858
-17.255
32.178
-43.9088
15.413
3.51504
-9.65117
23.7868
-13.8166
-30.95
17.3783
-11.1014
-3.79778
9.83023
-25.4272
24.0616
16.7785
-10.0209
16.7716
34.7025
3.90715
-14.548
10.3765
9.61254
-3.58636
-4.23385
0.909866
6.91035
-6.14603
-3.76807
6.32773
7.24349
-6.64163
-4.83572
0.448348
4.38712
2.40803
7.50277
3.65163
-10.7061
-18.5393
-17.9625
21.1688
15.333
-18.3196
22.234
-3.87058
-0.0437719
-5.13487
-0.473501
-12.7112
-16.0499
-1.30094
-1.18843
-11.9374
-5.64483
10.9144
6.66787
-4.12193
17.6159
8.73994
-16.3322
-2.93999
15.4016
-15.2566
-6.21047
-24.4825
4.65179
15.7088
-17.4541
-7.50194
2.84565
-17.6275
-3.18065
-9.09174
10.3346
-11.3276
-22.0956
-11.5818
-8.37269
-2.29536
18.0945
-7.42649
-8.16009
-0.754117
0.541524
-11.6925
21.6123
-12.2152
-8.44672
0.69198
-0.405351
9.34172
-1.07819
1.16897
-9.4325
-5.41107
6.30606
3.13633
8.98358
-8.93144
-3.18848
-5.61802
8.75436
11.0291
0.419604
-12.5269
-0.799271
1.51772
8.26514
-0.346391
-11.3152
12.8306
1.28021
-9.79204
-13.8808
1.3891
-12.947
0.248532
-1.40047
0.421963
0.729971
-0.631571
-0.151871
1.03197
-0.455928
-0.52494
0.349297
0.0482654
-0.20425
-1.24448
0.586791
-0.690397
0.0387381
-0.803964
1.18719
-0.634322
0.217131
1.63304
0.296587
-0.550091
-1.37954
0.164542
0.825905
0.642593
-0.749223
0.388825
0.114479
-0.567115
-1.59141
-0.280685
1.06813
-0.695402
-1.10025
0.197578
-0.0622105
-0.416052
-0.322265
-0.124599
-1.15339
0.582591
-0.736901
-4.20191
10.3746
6.81829
-12.991
-1.938
-17.2985
5.59496
13.6415
-16.4061
10.2662
-9.87995
-23.8246
-6.45733
16.1158
-9.65849
-12.3125
13.8056
4.10193
7.89566
-24.1943
6.41869
-10.8742
9.01573
-6.41732
2.46308
-5.06149
-0.616289
5.5869
4.04512
0.137512
-1.26048
-5.29435
7.95829
-1.61446
-6.20632
12.1908
4.96773
-9.20019
6.44631
5.12815
-6.90956
9.37264
0.32762
6.91384
-8.50194
-9.55526
8.26843
13.2404
-8.27271
0.00428065
-6.53822
0.867497
-6.29864
11.9694
-8.99081
-4.61978
7.07237
6.04527
-7.00072
9.86012
-8.90467
0.15031
5.89496
-7.50106
-7.40297
15.7715
-0.302188
-9.27195
0.583327
-6.60083
-4.18013
-10.6531
7.3322
-10.7577
1.95782
-0.0517558
-8.67159
-2.03439
-7.63393
-1.68978
-4.54774
6.45052
-9.5367
5.49511
-17.0436
10.7643
-0.340502
-0.563654
9.25627
9.99615
-13.1726
-0.997488
4.41729
12.9006
-9.9052
-7.41266
10.6795
0.440582
-6.70281
4.43274
19.1473
6.52329
-12.0427
10.6543
-5.13495
-9.9479
20.9039
6.2151
4.92436
-23.144
12.0045
4.72209
-10.5496
5.22582
-10.2067
16.8731
7.03826
-15.4998
-8.41158
-5.66152
16.2892
6.2454
12.2156
-3.93674
-13.9404
9.45423
-0.399902
-2.01607
6.79606
18.9474
-2.2348
10.8809
-9.04604
11.0851
3.21164
-2.0811
23.9981
-6.11699
-6.5388
-7.79816
-2.08956
16.4265
-12.9133
-9.03087
15.4053
0.0291663
-7.82733
-12.9076
0.0235338
-1.16081
-24.5675
16.6974
6.57104
-19.6593
11.9274
-8.07143
12.5529
-20.5031
-10.1527
22.5843
12.5875
-27.8996
-5.19097
2.43486
-3.13765
-18.7052
-2.72465
-12.4192
-3.62609
-5.39246
-24.6004
-13.7641
-10.9001
-6.91157
11.7104
-0.940384
-3.30046
-7.46955
-5.34075
0.128442
5.0149
0.197408
5.55791
-13.416
2.51732
-9.41662
8.55522
0.989845
8.995
-12.8537
-1.48185
4.03373
9.15851
-13.4927
4.69535
7.31554
-0.947042
-2.43096
-10.1147
7.4365
-3.36198
11.1931
-3.14511
7.01489
12.7334
1.29413
10.1761
13.0044
0.0953164
-6.23426
8.27726
-2.13831
-8.46853
11.3156
-2.7518
1.32797
-16.0308
-15.2622
-1.37466
13.7346
2.90224
11.9332
-25.8674
10.5585
16.8867
7.77384
-16.3833
-7.57681
8.54604
15.9175
0.197027
1.19785
9.22342
0.894382
11.6724
3.26009
-0.0280604
17.7975
-10.7555
22.3999
-5.83138
5.24106
10.3952
-9.80487
-8.03104
4.55762
-2.35795
-16.9463
5.52348
3.39176
-6.14389
-9.36728
20.7522
5.88805
-7.47433
-4.05292
-5.31436
-3.85797
1.62179
-16.823
19.0592
20.6687
-21.3584
-3.16825
3.97698
13.287
3.40469
16.4474
-1.76447
-13.0612
5.32834
18.9295
-7.81042
5.81016
11.8938
-13.7269
15.4499
3.93772
-19.2819
-0.105718
-2.08086
17.5308
-13.6647
15.838
-1.37387
20.7568
-14.0546
19.3362
-14.9
0.823758
6.11564
9.69422
-16.6336
4.46341
6.80344
-10.4431
8.27008
7.16153
-10.9682
-2.92884
17.7997
-6.60078
11.5634
-8.37661
0.049785
6.75365
9.744
7.61828
-12.4144
9.41531
-4.61923
-2.54748
15.6229
-5.45716
0.159575
7.00195
0.993478
-1.84444
10.7375
6.91323
15.1032
11.8535
10.0767
-4.88426
-17.0459
-4.50562
8.79532
7.56379
5.57105
-12.2144
0.693724
18.0243
-6.5037
-6.80988
3.39083
-6.28418
11.8552
-16.5964
-4.87235
12.3319
9.13688
11.1565
-6.76858
-20.9844
15.6993
-9.05781
-15.3649
8.72346
1.64668
7.88391
6.16868
-5.99426
18.5432
-20.7107
7.98432
7.14524
2.50723
-17.1347
7.48227
6.51958
11.5404
-10.9148
-5.85367
-17.5434
6.04129
17.3557
-21.0831
3.65576
11.5736
-4.93435
-6.1096
-10.0391
-14.8837
-7.59402
5.62584
7.06375
-10.1824
12.1454
11.6157
-0.111629
0.0363289
1.34572
-5.07769
-6.70466
10.4366
-8.93347
16.3205
-11.69
10.2681
12.5564
-11.6023
-3.96611
6.64836
-10.6708
-1.47464
2.34105
-5.07041
-11.3944
9.82124
6.64359
-10.1405
5.07008
9.26398
-2.26482
8.82532
-15.8245
-0.876505
7.58789
-16.3105
6.45775
7.10173
2.02707
-1.54092
-0.673193
-7.39513
0.210548
7.85778
-9.10138
-1.31912
9.74731
14.2323
0.431354
-3.60799
-11.0557
15.0061
-9.8752
-2.13775
-1.16991
-0.314527
-6.18362
0.585231
5.91292
-9.18842
8.87389
-3.96557
-6.92363
7.39905
3.49015
8.55928
-12.5249
-8.97374
-0.214672
12.4968
1.15043
0.346864
-13.9941
-0.242696
12.7395
0.93088
-8.75419
8.49774
1.00683
-9.15771
9.23282
-0.977775
1.00793
-7.99973
0.808176
3.31712
-6.06202
-10.7667
7.90234
-12.9659
15.8303
-10.5861
-0.180651
-4.76981
17.6484
-4.97625
7.31325
-7.61759
-9.36113
9.66547
-3.80545
11.1187
6.11665
11.1114
-10.17
-7.05812
-4.46943
8.27487
-5.36631
-10.5261
-3.16453
1.31005
7.12689
13.8033
-17.2334
-3.69674
-11.6741
14.0312
3.57296
-19.1092
-13.5776
-1.26102
-19.3976
9.39302
-0.901107
5.09222
-5.7258
1.53469
-8.57862
7.67752
-7.36818
0.31065
-4.84376
-5.47574
-1.89244
-7.74538
10.239
2.18215
-20.9998
3.40327
1.10993
-5.5436
0.0678594
-9.69377
6.33232
-1.85532
0.870399
-2.77015
-0.499998
-1.35532
2.71702
-1.11588
-3.77383
2.17269
1.50895
0.509014
0.699052
0.831752
0.443167
-2.3908
-0.513365
1.34512
-1.93141
2.26898
-0.850928
2.90494
-4.39319
0.845119
-1.13733
1.30923
2.09707
2.05736
-0.289744
-2.2734
-0.933631
1.29291
0.0104354
-0.129113
-0.839249
0.957927
0.0807496
0.243612
-0.313926
0.44899
0.137336
-0.714519
0.128193
0.00351273
0.813182
-0.367704
-0.398281
1.0915
-0.689703
-0.101519
-0.296762
-0.110262
0.593276
-0.612127
0.766829
0.808858
-1.43835
0.642616
0.204962
-0.707339
1.23969
-6.48678
6.18231
-18.3008
18.6052
-22.3367
2.95667
12.8932
-2.55077
-10.702
-9.08386
17.9458
-11.5056
-8.99101
11.5417
-5.98981
12.3939
-4.66302
14.9027
-4.05737
9.83537
10.7098
-2.49239
-19.723
4.71996
-16.6517
-0.759049
-0.890018
-7.88765
-19.4661
12.5618
-6.90047
7.34225
-13.0036
12.7925
-0.989711
-2.22043
6.94038
-17.2805
-5.12182
8.82675
9.08754
-1.39724
-0.115745
1.01914
0.493849
1.93755
-0.506905
-2.82789
1.82181
-0.110638
1.50823
-1.9045
-0.884818
-2.26273
-1.06532
4.21287
-0.373781
-1.06725
0.556216
-2.63651
0.360907
0.983081
-1.45463
0.312791
0.693526
0.814706
0.611285
-14.0148
13.4449
-13.6785
14.2484
2.34796
-3.33543
-13.0273
3.47575
11.5592
-20.1343
5.09939
5.69415
13.6032
-15.8216
-5.20466
7.55262
12.4092
-6.22291
-0.49218
-0.346699
0.144291
12.6117
0.101658
13.5015
11.6608
13.1548
6.45618
-7.23279
-16.2779
13.673
9.83766
-12.4875
5.43521
-0.180484
-2.85839
-4.23736
-9.18218
-5.18544
-10.1605
8.2615
-8.17558
5.34929
-3.38392
14.1919
-12.4681
3.62849
-5.35231
-9.29893
16.0348
7.45604
-7.54909
-5.9872
-16.1307
-3.88649
10.8486
-7.2201
-10.6746
-4.56859
7.06762
-11.0627
-4.79734
-11.7887
-1.59601
-1.41935
-0.0618218
3.07718
2.24754
-1.26719
0.418211
-1.39856
-1.41342
0.36219
1.1188
-0.0675727
-1.26428
1.86608
-0.601804
0.250364
-1.51464
-6.48429
0.693344
19.5306
-13.7396
4.50412
-11.4879
0.4995
-13.1369
-6.03848
19.8688
-10.5876
-5.61374
3.06439
14.0782
-11.0115
-15.6639
12.5972
15.554
-7.51424
-24.3068
2.70771
1.37647
2.81288
-5.415
1.22565
3.68329
-4.40831
2.10149
6.62599
-5.95773
-4.93335
4.26509
0.609407
5.54284
0.473739
0.533375
2.88891
0.736367
3.4803
1.19174
-5.17143
-1.4353
-2.99937
-0.217203
-0.479748
-3.86587
5.50295
-1.15733
-1.73434
1.99096
0.855078
0.224974
-6.25148
1.12091
-3.2652
-2.67812
-6.54683
5.35908
-5.64729
1.23483
1.19485
-6.92761
-0.847777
-0.822227
-4.87683
-5.37416
-3.69984
4.07247
-7.88188
-5.20494
5.43239
7.65443
-0.796034
-2.38859
-4.69726
8.38017
-4.2656
-4.91061
-4.63774
5.02321
7.99471
8.44228
-4.21516
-8.49272
-0.486298
4.29084
9.79334
-3.54987
-8.63206
1.43775
3.15065
10.6398
-0.184167
-7.63638
3.45024
-1.07052
-10.781
-11.6316
7.01123
2.87365
-6.36925
1.70815
5.33802
-7.81723
0.77106
-6.12812
3.95384
3.88243
-14.5406
-0.349382
7.99468
6.89527
-5.21819
-0.886507
-8.43588
8.3968
-1.39987
-3.05698
-3.93995
-5.10084
7.36952
-10.1509
4.70068
-5.3113
-10.0578
2.38856
-3.12125
6.07071
-2.6694
9.01181
8.50304
-4.28996
-5.61295
-1.97479
2.6606
-11.9199
3.95286
0.0670172
7.89997
-5.59664
-7.20972
9.27814
-1.47348
-6.8948
6.55217
-2.72683
-8.1153
4.19003
0.387347
-5.01086
1.73712
3.34075
-4.83052
-5.77698
2.8059
-9.03083
-15.1812
12.5933
15.4297
-12.8418
-2.54765
-17.5747
8.671
11.4513
-26.7506
10.1291
14.0739
9.05517
-13.4564
-13.1735
-9.9186
-7.77685
0.529609
-12.324
-1.18465
12.9791
-1.00183
11.3585
-9.82707
12.8909
-13.6921
-0.200714
-11.3793
10.1217
9.92861
0.620227
-1.6698
-14.1316
-16.2174
15.6151
10.7314
9.74446
-11.8423
15.9592
-12.9868
-1.01462
2.21171
-2.46992
-1.40225
17.9033
-14.2893
0.0199251
-2.29256
2.29697
-0.0243375
-0.18871
0.208635
-2.27136
-1.23818
-0.0782974
3.58784
-2.46007
-8.75052
-2.48392
6.21396
5.02049
0.202011
-1.5049
-7.44764
3.76326
-2.53629
-3.68703
-0.273673
2.79875
-6.89763
4.04994
0.363772
-1.12983
-5.56579
0.266974
-0.459866
0.401527
-3.15542
-0.200231
2.4189
-4.50106
-0.452867
6.39315
3.39684
3.90877
8.45218
-15.332
2.97105
8.65958
-11.9467
7.1959
-18.7776
-5.69849
11.4852
12.9909
-15.9481
0.104265
-2.93374
-6.46663
-12.2217
17.1747
1.51363
8.35104
-4.83278
-9.9849
7.79141
-7.49242
8.15319
-0.19079
16.6418
-9.3908
-1.52183
-1.03408
-16.3718
11.086
8.6556
-24.5744
14.9688
-16.1045
7.53342
-14.8259
0.313099
17.8059
-2.73283
10.512
-5.10875
12.4027
21.8063
4.57357
3.88944
-7.11564
-5.40586
12.4424
5.48298
-8.24757
-9.67783
3.71093
4.88438
3.84712
8.69956
-3.31717
-1.49295
3.41708
8.43314
-1.23198
-3.74487
8.39393
-2.60987
4.25155
-5.06812
-12.9317
6.36817
7.55332
-9.54417
5.70178
9.13072
-2.19218
-1.45557
6.98677
7.02833
2.89477
1.48213
6.70321
-10.2137
-2.6476
-0.895245
-17.5661
-13.079
-4.07082
2.07677
23.5517
-21.5577
-17.4723
0.182868
13.2187
-15.469
-3.64564
1.64227
-1.82343
-12.8053
16.7055
-8.64134
7.00077
-7.42706
-11.5167
3.47484
11.2838
-4.542
-14.4648
7.72303
18.2914
3.11881
-10.1265
-7.69654
13.1827
7.71245
9.78261
-6.8393
-10.6558
15.0171
-7.59897
0.294333
-19.5853
8.48985
3.39895
-6.68392
-14.2748
14.1233
-2.90336
-4.64675
-10.3793
-16.028
-10.2693
6.64133
6.07908
-2.45116
7.72184
-12.9592
-5.03191
-10.3916
13.3311
3.02874
-5.96828
11.5544
-16.5161
-5.42988
2.99934
0.0541301
8.50097
12.5427
3.78774
-13.987
14.2802
6.34813
0.0997312
-6.36491
7.63339
16.2292
-17.7293
-6.1333
14.7427
-7.00956
12.0148
-2.90694
1.97285
10.745
-0.175158
16.3489
-4.8871
4.76739
15.6483
15.4433
1.58584
12.4018
0.940382
16.5745
-1.86657
16.8065
-8.48915
-7.13366
2.93688
12.6859
-9.26643
-2.92277
3.70005
0.936994
-10.8914
0.68801
11.7897
-12.6174
1.76471
5.87446
-9.96865
1.17142
-0.126267
4.78227
6.15761
9.93085
-10.214
-5.81346
14.908
-5.8717
-2.81333
-1.28362
3.52393
-7.85926
-1.53637
2.78823
-10.1557
-1.47897
-8.35017
-4.26096
3.39649
-4.94899
-3.97166
2.80545
9.08044
-7.91422
3.34014
-3.80389
-3.50792
-2.39701
5.34397
-5.76029
-8.08169
3.69447
-6.22052
-12.5123
27.319
-6.88927
-7.91737
5.01803
-16.7253
-0.805036
5.40434
22.6831
-23.0694
-0.637838
30.4056
-6.34988
-23.4179
7.33036
14.2163
-35.1287
13.5821
22.2251
-17.4586
4.9659
20.0589
2.29416
20.9029
6.74614
-2.53144
18.7616
4.67278
17.4591
2.2346
16.3773
21.3587
-8.47699
-8.60125
35.8398
25.3594
29.0274
-17.5697
7.96847
-1.96364
-10.607
4.60214
-10.9015
16.9365
1.93341
-12.7382
4.49862
-1.60477
9.84437
-5.36345
-12.9695
20.1434
-1.81054
15.0374
-6.79692
-13.604
-1.68029
3.97951
-11.314
3.80419
5.5462
19.9104
-19.6514
-10.866
-9.98884
18.9978
-7.27152
4.77258
0.818657
-2.60649
-11.462
-5.52352
-1.01794
-3.60699
-6.02813
-10.0163
-16.6061
8.72633
-2.1091
-7.69741
-12.5156
-4.41316
-7.13849
-2.79806
-11.022
6.12267
-9.81771
4.04299
0.340936
1.68678
-7.16576
3.7844
7.42435
1.00559
0.840457
4.53263
-0.0935627
-1.63317
3.55663
1.31694
-3.23096
-0.891205
7.90656
-3.59403
1.36867
8.00911
-4.73984
-0.930398
-2.33887
2.82573
7.6026
-2.41921
-1.49265
6.85514
-1.17103
5.49115
-0.866688
-11.9888
-2.52013
15.3756
-8.81597
10.1848
-2.23549
-13.995
6.6598
-2.17912
9.5143
-1.63613
-0.0467894
-7.13305
-2.47372
-11.1512
-10.1354
10.0039
-2.38865
-11.9117
-2.07035
11.839
2.143
-5.73481
-20.1718
-3.62279
0.147178
-6.56534
5.84525
10.9988
-10.2787
-20.0523
-0.49705
13.984
-6.92885
7.99262
-15.2917
14.228
7.26864
-19.9323
-12.2974
-3.10144
11.776
-5.78909
-6.2706
-10.8178
0.579854
14.124
-4.15613
-10.5478
17.8495
-4.7394
-12.5302
-5.39304
16.5148
3.00226
16.4552
-3.99878
-3.26005
11.9767
-13.456
2.40042
8.25023
-13.9107
-0.234316
-12.8507
1.89404
11.191
-7.34745
0.538322
6.57482
-2.23053
6.85974
7.29842
6.92625
7.4092
16.404
8.43628
-10.192
2.34837
-6.94886
-5.95587
8.55205
4.81302
-14.1126
-3.0331
11.1898
-3.32793
22.1847
0.207011
-4.94268
-17.449
13.9026
-1.36355
9.6456
5.14795
-11.4267
20.1813
-3.79774
17.5876
-8.10904
-5.68082
21.1346
-12.1249
-12.8074
-22.5933
29.2792
-6.47894
-5.47298
-13.1583
-3.96201
-7.87513
-1.67817
14.7012
-13.4711
4.23237
-8.59086
9.6801
16.4983
5.8897
6.65403
-16.1128
8.53145
-5.43696
-19.0637
8.38786
2.25662
-19.8185
5.74149
-11.5939
0.454641
17.3979
-17.1768
6.85989
10.7715
-16.9083
14.8618
29.8173
-25.7804
-22.7973
18.7604
-1.85468
16.1734
15.4986
-4.21145
27.3089
-10.7377
-12.3598
12.4126
-24.3416
29.7986
-17.8696
-16.754
3.38627
15.2348
-32.2332
15.1437
6.9989
10.3508
-41.6913
-20.2255
10.4704
-14.4322
25.4556
-0.442397
14.0386
16.3159
-29.9121
-12.3724
9.93778
29.2013
-26.6427
7.79212
-26.9661
12.0915
-10.1371
45.6962
-28.5161
-3.11855
-14.0616
24.8948
30.2071
-9.40569
-21.1913
28.3661
-20.1066
12.9318
-37.0894
-12.618
46.7345
6.52647
-5.02628
-31.0037
-1.05944
12.9165
8.71309
-41.7362
-19.5552
-20.4172
25.5385
14.4339
-15.6474
3.25885
-7.1666
24.2779
-30.51
25.7017
-19.4695
26.5443
10.65
-4.20694
-26.6497
25.8304
-1.86872
-34.6709
6.02962
-24.6267
0.29818
3.9113
-23.1624
-17.1118
21.569
4.43082
31.6665
16.4469
-29.238
3.95007
9.10314
-1.5712
-11.482
-11.9941
11.4616
4.48255
5.71266
-12.8105
-4.89629
-8.71791
14.7114
2.14818
-8.14169
11.2924
-16.5734
-3.4369
-4.51056
-2.4682
18.4404
-3.73304
8.32562
-1.05364
5.63867
10.1264
6.5057
11.3958
-3.53494
14.5662
-6.72313
-0.670009
2.80319
4.58994
-4.14605
0.172109
-2.74919
2.18019
-1.66287
-4.66336
0.686861
0.823317
-0.379338
2.24689
-1.18069
2.17095
-0.995794
-1.55449
-0.996555
1.11411
2.12933
1.35395
-0.179551
-5.22301
1.86091
6.16529
-3.03311
-2.01779
0.389141
1.61437
-3.66638
2.57375
-1.39001
0.358154
-1.54189
0.525837
0.878135
1.16977
1.54193
-2.14859
-1.58065
1.08571
1.02079
-1.42873
0.978955
1.4607
1.43426
-2.85299
-3.96084
2.61836
2.22062
-2.16843
4.8091
-0.32984
-9.56888
-10.3556
24.2291
-4.3046
-15.2559
-18.178
23.8651
5.89159
7.85457
-0.134269
-13.6119
-0.234172
-9.13016
6.4946
-8.99565
-12.8656
1.97662
25.3436
-14.4546
-0.907017
12.2705
-6.42387
16.5043
-10.3146
8.48254
-15.0407
8.33563
-16.7365
7.49382
-6.22528
-7.31136
15.5133
-9.15642
11.2668
7.9102
5.66309
2.93099
-4.19437
-6.04749
7.45837
-16.8553
0.24048
8.05722
-12.5671
5.91625
-3.97996
-2.03962
0.103327
-1.42412
8.43363
-1.09326
-1.06906
2.52145
-5.92782
4.47543
1.34651
-4.50281
2.08724
7.36757
-8.20731
-3.14021
8.4649
3.88396
-2.56197
-4.72627
3.40428
2.28985
2.94062
-0.92365
-1.20158
-3.80259
-3.43706
-1.9894
-6.26529
0.266263
10.4261
7.34635
-3.91465
-13.8578
-1.27359
5.34912
6.35055
3.13272
2.94004
6.82014
-0.445798
-3.24163
2.6605
5.12108
-11.6962
-11.0782
2.3846
15.5137
-2.13204
-0.126736
-8.81938
4.15837
-7.06038
5.56251
8.71283
3.18428
-6.77602
4.20368
9.85827
9.54169
-10.0835
-1.59022
16.13
-2.74086
18.9623
15.0319
0.465301
-34.4596
-0.0573294
26.4197
-7.40002
-41.6091
10.2529
15.9794
15.3768
2.42622
-14.7423
-29.293
42.9545
-12.2953
-28.233
28.607
24.6004
43.0046
-40.2679
2.66285
28.6846
11.6571
-11.9985
16.5396
-4.59847
9.71779
-21.251
-28.4228
21.883
9.2027
14.1287
-16.1318
18.2823
-23.3068
14.0042
43.2875
12.0722
11.592
-5.38187
20.8444
7.20718
-17.5724
9.01662
30.4388
-9.45852
6.01478
-13.0868
11.2558
22.6754
-3.85387
2.35902
3.22723
34.2766
4.9521
6.72059
-27.2586
15.5859
10.607
26.9079
-32.5628
0.57272
19.7546
-13.6067
32.1149
-20.9351
37.0191
-16.0834
5.97216
46.7997
2.94676
-22.1566
-27.5898
22.3074
17.9942
-20.5471
23.5883
32.1937
-23.6672
46.2182
-0.322422
1.35379
30.2926
15.1533
-45.2914
15.3518
31.2934
-18.4419
18.23
-45.0796
33.7435
-12.8025
-3.36433
15.2637
20.2944
18.7729
24.0809
12.6478
-4.99224
26.088
10.9532
20.4675
-18.5953
32.241
1.7061
19.1287
-0.551436
15.7971
-0.348718
16.7905
-3.75186
-12.69
-4.79406
20.6895
-16.2441
-2.68637
21.0507
-23.1584
12.9736
1.20049
-16.8605
5.76429
13.7256
-2.69938
21.6361
4.81763
-5.25674
14.2519
3.97843
18.3023
-2.50842
13.0224
-15.5738
-17.8592
-13.8969
10.3654
21.3907
2.68754
-19.7321
-0.814669
16.3694
4.06932
-1.37888
13.679
15.2345
1.01596
5.38573
16.4936
-23.2032
-1.39688
3.99356
0.297698
14.137
3.05572
10.7999
13.6138
5.70445
9.60379
3.25124
-6.92857
10.282
16.2891
-5.35307
8.24817
-8.24753
5.35243
-0.198709
-3.7639
-1.39046
-10.0112
8.84149
-7.87689
9.04662
-3.12577
-12.4761
5.59065
-6.30882
10.7548
4.39555
-4.91381
-1.59373
-6.60457
2.21977
-8.00673
12.3915
5.04136
-0.891163
-2.34288
9.60401
-6.7725
12.6778
-12.8235
5.52768
-0.95167
-9.61214
-6.9753
-9.4578
1.41822
6.90473
-0.497367
-0.919353
-5.48801
17.5248
-18.6268
-5.93319
4.68837
-0.424664
-6.0059
8.49435
-6.7785
-7.53454
5.81869
3.76535
1.81479
2.9142
-9.00198
-10.7802
6.90996
12.8722
1.89048
4.41386
-13.0828
7.60378
-14.7153
-9.71441
6.35076
-6.63323
9.99688
5.6527
-7.76332
-7.71248
3.14093
1.98149
2.59005
9.11428
-12.4129
7.08844
5.03619
-3.01036
4.97204
5.25733
1.88628
5.74791
-9.02616
10.3088
3.68935
-0.224611
-5.2061
-3.09677
16.3765
-8.07367
-26.537
1.07079
14.0598
11.4064
-1.65321
-26.294
1.41025
-16.0422
-2.55391
13.3901
7.96723
-0.870523
-23.1389
-20.5726
9.93176
11.7117
0.129103
-22.355
-5.41779
12.2528
-17.9269
9.95517
-19.2411
1.44336
18.4593
2.26832
0.807293
-21.5349
7.84118
11.9661
-1.34805
-6.9427
-4.71418
6.23473
5.42215
-13.8606
-8.54891
15.4669
-13.0772
13.6854
7.23298
1.99447
-12.8033
-13.4633
11.5688
2.11832
-14.7744
-4.69294
18.7729
-0.394575
-3.54242
-18.2346
17.0629
-24.5933
3.02279
18.0281
-2.08629
-26.2098
3.70281
-21.0114
0.690455
-16.8103
15.1401
3.35055
-22.2436
0.27644
-23.1357
-14.5394
-17.3646
4.08059
13.8031
-0.519046
-8.27091
5.32158
-14.4153
-1.54009
6.54318
4.88742
-9.89051
12.3204
5.92032
-19.7808
1.2363
11.0128
0.071238
7.16734
0.612148
18.6862
9.08184
-15.4374
-12.3306
11.8906
7.82063
-1.02505
-16.7171
10.8183
17.7894
-5.39522
-2.24003
9.25141
-12.6349
11.1059
2.22608
6.7762
-3.9259
2.47127
16.1321
4.44717
-14.8738
5.35673
-10.4795
4.23837
17.0595
-4.86192
13.4398
4.83342
9.15136
16.2417
-9.2609
26.8296
5.12479
10.1026
0.634322
-15.8617
10.3129
-11.7424
6.55431
-4.70969
1.15656
13.866
-2.81296
8.20583
3.49687
-0.363415
-14.8758
-8.70362
-3.37656
13.2367
8.43642
-4.07709
2.64723
-7.00657
5.64908
8.01124
-4.32474
-9.33558
11.4821
2.77888
-8.61193
0.726422
12.1019
-4.81706
13.2015
-4.0387
-7.59384
2.38709
2.59737
6.07181
-10.4906
9.71139
-6.67284
8.28414
-1.06514
6.08329
0.42427
-4.56992
-1.93764
1.11554
3.00822
1.95953
-3.65384
2.2852
2.48418
-0.922092
-2.30748
4.20688
6.81373
-8.01238
-2.09635
7.58798
-3.20643
-3.58108
8.98104
-2.69065
-2.70931
1.90668
-5.09425
-0.393509
3.07658
-1.53081
-2.46787
-5.07888
6.05911
2.96478
2.2867
3.72956
-6.23996
4.12586
-5.86409
-6.97478
-4.93714
4.73622
7.1757
-9.16855
0.998616
1.19516
-2.35245
-3.03608
0.451393
6.87824
-8.53999
-0.690704
5.81682
-8.69567
9.75709
-6.59225
17.1453
-4.49029
-7.71435
7.2285
-8.90521
2.67532
-5.5362
6.17245
-8.37315
-0.0628105
-0.10403
-4.11764
-10.1142
-9.12434
0.118481
0.100652
13.423
-0.376005
-11.3422
-1.70478
16.4667
15.6773
-19.8313
-12.3127
4.03236
10.8879
1.54638
12.0903
5.36503
14.3912
2.99641
-1.71033
13.0586
12.2206
23.9334
-12.1789
-3.63008
-8.12442
0.479115
-1.88104
25.3353
-15.0464
-0.649054
16.1746
-15.135
22.6319
-14.7078
-11.5543
-1.09218
21.8431
23.1779
-17.006
-6.48008
0.308163
0.603738
21.482
10.8144
-13.4795
-14.3409
15.5398
-1.72894
-1.06112
13.4707
-6.45813
-14.7297
15.0824
12.9419
-0.323484
3.00849
-15.6269
1.70819
13.9551
-2.72141
21.5795
16.834
-23.1207
-15.2927
-2.86981
10.6621
13.7872
5.30051
8.6637
11.638
2.50856
-14.47
-1.81718
15.1633
12.0876
12.5296
3.24888
-23.3611
-19.4171
7.10966
11.4212
0.886186
-12.8234
-0.824156
-5.7695
1.26781
17.1716
-6.35175
15.1786
-0.0271053
-11.9026
10.2191
10.26
2.99259
-13.3074
-18.944
4.97418
21.0795
-13.0771
-6.69108
16.4611
-10.1116
-0.635018
0.786586
-1.0043
0.852734
0.702443
-1.94149
0.604027
1.39376
-1.49653
0.80521
0.159406
2.02094
-1.31588
-0.178953
0.490525
-1.80803
-1.44933
0.462599
0.910366
-1.55192
0.61867
2.08612
-2.24219
-1.69908
2.47716
-0.856391
-0.208269
-0.763805
1.82847
1.65258
-0.745377
-1.76359
0.869333
-0.842737
1.62598
0.797583
-1.22259
-1.07152
-0.0321665
0.908527
-2.8765
-1.10778
-10.3395
14.5787
-15.4311
11.1918
7.71226
-0.146678
-17.905
0.980245
-3.20085
9.93287
-4.47957
20.0385
-24.6675
-1.0459
5.30315
20.4102
-13.5986
-1.51278
-9.55609
1.6176
-5.28752
-11.7611
-3.22076
-15.5974
14.3386
-18.4274
14.1607
-11.9868
-20.0392
18.0986
-11.1564
-8.45494
20.2009
-9.95599
-4.02384
-8.29566
-0.777238
-2.0835
2.98969
-17.025
5.7396
-18.9531
4.39231
7.36443
-11.7567
8.89815
-8.02347
3.51763
1.70942
-2.69459
8.3496
-1.18524
11.7928
1.83634
-13.5931
-7.165
0.977866
1.19476
-17.9301
1.84891
14.8864
-15.6068
2.94457
13.857
-22.0003
19.6004
1.8477
0.552215
-2.21484
0.225154
-20.0106
-3.27762
4.94794
-19.2646
0.380208
-10.6626
12.422
-0.725043
1.19714
-7.6371
1.52674
-15.8449
-14.4145
13.5688
14.1633
-14.8514
1.59653
-1.17345
-17.866
-10.6389
1.12532
7.2227
1.4911
-9.83912
2.4175
0.207519
-13.5115
10.8865
16.706
9.35169
-18.9659
-7.09187
-9.47349
14.7108
11.4688
-6.86515
8.92146
-2.70683
0.650518
-9.08358
2.51432
-0.29589
15.1439
2.74301
-15.4694
-6.48649
12.5468
0.746502
-4.48999
-9.89217
10.3344
-2.87099
2.42879
2.43068
-12.1153
-3.26483
8.39254
4.22398
1.51039
-18.0456
-7.2166
8.19487
-9.79118
1.10464
-3.6902
12.3767
-7.99443
-24.4765
22.6798
2.32616
21.3904
-13.3944
-10.3221
-12.2057
2.33101
3.81184
6.06282
-12.8475
-15.5741
16.2159
-21.9412
1.09931
-6.95114
10.341
16.0801
-19.4699
-3.45805
-2.38845
-7.3393
-8.83102
18.4965
-8.77487
-10.3229
11.7584
-7.21808
0.774219
0.641787
0.868187
-11.9645
2.28346
-8.52885
-10.6538
-7.46677
6.28276
-7.68012
8.86413
-10.9359
6.48058
-3.01143
0.205101
-10.9662
12.4084
-1.64729
-9.69531
-1.03552
-6.1841
-3.65688
16.1237
-6.25431
6.55079
0.245102
-16.1818
9.68236
-22.172
8.63948
13.7776
-0.915091
6.96442
-15.7446
7.45329
-19.3346
3.84572
-13.0631
-6.7776
-11.5486
-0.294554
5.02287
-10.5648
15.5474
17.4433
-16.7676
6.58391
47.8709
-29.2327
-1.74328
-16.895
1.35226
21.7072
24.8115
-33.813
-2.7624
23.9502
12.6252
-19.9415
-43.1041
-25.7166
12.9346
14.1343
-17.3401
-10.1198
-27.0851
14.1723
10.1504
-12.2454
9.01088
-23.8506
0.567415
-32.7543
8.7001
36.9573
10.2325
-14.7922
17.4944
-32.8257
29.3112
17.6868
-5.62397
-18.1908
16.37
9.94183
-25.7444
25.9646
-7.032
14.1817
-15.1519
-2.64986
2.03937
19.1432
-14.8253
2.04845
14.4449
-6.835
3.18254
-15.0164
18.6689
16.0372
-18.2844
-1.36081
4.80079
-7.04224
18.2786
-11.6702
-0.397345
-10.755
22.8225
-1.79833
-16.7068
-2.80167
22.6086
-5.56446
0.796403
-13.5163
-10.3073
19.5195
-9.60951
3.1905
-15.2962
-19.647
17.273
2.65334
4.05096
15.8607
-22.565
7.70794
24.9434
-29.998
13.3906
-9.41165
10.3993
17.2986
3.47986
-1.25898
22.2049
7.85015
6.73012
-26.4226
11.2327
-16.556
-6.15323
9.20426
8.40027
1.43431
18.7829
-8.98455
10.4216
9.79504
-13.4865
-6.49928
18.3552
8.70988
3.9198
11.6456
7.07649
-10.0122
-0.894632
9.67505
1.94111
2.23244
-15.2212
11.0476
15.2968
-6.65289
6.92328
-15.5671
-4.50376
-0.987082
20.7876
-12.7909
3.50085
-2.09969
11.3898
4.11765
-14.9675
-4.41424
14.9337
-15.0232
-9.93137
-3.82756
12.7719
-16.6033
0.019017
21.3725
-0.927438
-9.98238
-10.4627
2.14883
2.20191
17.0218
17.7078
-9.24429
-9.39096
4.48431
15.3723
12.9355
4.01431
-12.8322
-0.166902
-0.460716
-12.7108
17.1858
-4.20461
-12.2367
15.9806
19.4018
-11.7299
-17.6543
17.1895
13.8983
-13.2416
-13.702
14.1697
10.0731
-19.8421
-4.40064
-7.24843
12.1657
9.25239
6.37636
-3.55171
-15.6756
4.0741
12.2918
-0.69028
-17.4527
-11.9542
13.7313
2.26126
-14.5867
18.7018
-4.45677
-11.7177
18.4358
3.69594
12.5439
14.2937
-13.1474
-5.60305
19.8695
-9.93133
4.35551
4.4235
20.9856
-5.53958
22.9465
-14.8271
-10.0459
-2.22391
-4.37402
16.6438
-15.5505
14.9658
-9.46123
9.88137
-6.95983
-2.92154
3.47576
-0.755076
13.8762
-16.5969
0.1009
13.2562
9.24224
-4.70643
-6.75971
1.52003
6.64315
-2.36537
-5.7978
9.04453
-7.52451
2.0847
2.42106
-13.0198
9.84362
-6.76071
9.28266
-8.50378
-17.752
19.4951
-6.41907
-18.5975
-15.5859
16.4314
-15.5483
-9.4682
-5.39922
-3.37042
-6.81631
-14.3044
-7.14794
1.76239
11.7526
1.49311
-15.0081
-17.7578
15.5288
3.99138
0.51327
-0.644019
-17.6271
-1.51733
-0.160341
17.2065
-1.45597
11.6913
6.16312
-23.0014
18.7613
-1.92306
14.0377
-12.811
4.93644
16.7303
-3.00884
-17.5444
3.82299
17.565
-0.834674
-18.0782
-2.07188
19.9898
-0.810316
13.392
5.7911
-1.53921
-27.2533
-9.49078
2.47089
19.8493
-1.47511
0.387116
1.26938
17.7696
16.2635
-20.8115
-1.24238
16.6712
17.3305
-18.133
-20.9554
-18.8864
27.6306
12.2112
-5.76186
-30.8873
15.6938
9.64649
-2.84841
-25.6845
6.22308
34.7795
-13.3721
-29.5508
-10.6128
17.9164
22.2473
20.4978
-34.2872
5.2526
8.53673
-5.95025
32.6712
-30.6454
-4.90758
6.00219
-25.7895
1.14877
0.380239
-21.3912
-4.77845
35.4451
-29.1364
-5.92853
24.4644
16.2333
-13.3152
31.8293
26.1209
-37.4271
-2.00902
5.31137
-22.8546
-3.84804
-24.8137
0.98868
1.97819
-2.58229
-2.39063
2.99473
-0.814023
0.992979
1.79923
-0.126552
0.245637
-2.70137
3.13471
0.0962143
-3.35747
2.00818
-1.81234
-1.09496
0.899119
-1.17901
2.17828
1.00891
1.14168
-0.518887
-1.19724
-1.68667
6.61954
0.551658
-21.1166
13.9454
-5.66952
5.56686
6.7222
10.8594
-0.720229
4.24944
-14.3886
14.2118
6.94136
-20.6015
-12.6465
12.8091
17.1058
-17.2684
-1.47031
-11.1762
-12.0939
9.84338
13.1099
-13.5642
9.95552
3.53603
13.7182
-8.9121
2.13525
-4.53341
27.1859
19.1403
0.913404
-2.88451
-14.5646
16.5357
-1.91336
-12.8107
15.6374
2.63344
1.43481
-18.437
14.3688
-15.2846
16.0046
-15.3286
13.8789
6.45137
-12.4265
-8.58939
-6.3593
-4.30647
-16.6665
5.68845
8.126
-4.15287
2.37348
-6.34661
-18.8056
11.603
-2.29502
-20.6634
-10.6658
-1.49222
-14.5713
-2.91587
-15.2429
1.39686
-16.1184
-12.1848
13.1146
-13.6108
5.35224
-4.85603
-6.92106
7.18956
12.8461
8.4536
-2.51145
-19.5529
1.53254
9.39871
4.16994
-8.2164
19.3863
-2.79805
-7.66699
9.19954
-11.5536
1.5513
11.9743
-1.97198
-5.38555
-13.8351
-17.2214
9.32441
10.3257
-14.6281
-14.8113
19.1137
-0.305077
10.6308
-0.604331
10.8965
1.5629
-11.855
2.14816
-17.3806
9.48704
9.39071
-7.9813
9.18196
-0.812573
11.762
-9.38656
15.5328
-14.1972
0.340743
13.501
-14.2236
0.381848
4.29647
-7.02133
18.2577
-0.735234
-13.0837
12.9312
0.887789
8.44673
-3.70211
0.00911128
17.0377
-12.6856
-0.0556623
-0.218689
17.8633
-0.606897
0.627752
8.15972
13.3402
-4.62568
-18.9616
17.8912
-14.8734
15.9438
-11.8091
-2.95833
-4.19415
5.01829
-1.70742
14.5803
-26.759
1.78971
10.0959
-22.81
-15.7581
-11.7904
18.2673
-1.45864
18.4937
-14.7287
-6.72328
12.108
4.6783
-19.9236
9.92298
31.4273
-8.38295
-33.1525
10.1081
27.2623
-15.7586
19.216
4.45803
-7.20634
-16.4677
12.7948
5.25585
1.16535
2.01715
-33.2101
-13.7468
14.0445
12.4971
-7.16348
-2.12524
15.9862
-21.1753
6.51327
12.3746
11.0349
-11.8662
-11.5432
-6.02027
14.4789
3.91589
-21.4571
4.07761
14.5857
2.79378
-9.87143
-0.550759
18.7451
-12.6166
1.81102
-7.9395
23.7297
-7.08922
2.10454
11.4861
0.151493
-23.5038
8.30594
-2.84012
13.6769
4.87968
11.2567
-22.5664
11.4612
6.89587
-8.25577
-17.6253
-16.8361
21.1236
13.3378
1.44196
-10.7613
-8.49826
0.0635259
35.1571
-22.2479
-12.9728
32.4934
-11.9305
-20.4994
5.22202
15.727
14.2081
18.1276
19.5878
-21.5114
-6.38887
5.6524
11.1976
13.01
-8.48068
-11.0196
2.27246
12.7314
-3.98426
-11.5209
-1.87983
2.38114
16.6737
-4.6891
-12.8891
0.90445
11.3746
-6.22172
-15.7539
17.2425
6.10497