/*--------------------------------*- C++ -*----------------------------------*\
  =========                 |
  \\      /  F ield         | OpenFOAM: The Open Source CFD Toolbox
   \\    /   O peration     | Website:  https://openfoam.org
    \\  /    A nd           | Version:  10
     \\/     M anipulation  |
\*---------------------------------------------------------------------------*/
FoamFile
{
    format      ascii;
    class       volVectorField;
    location    "16";
    object      U;
}
// * * * * * * * * * * * * * * * * * * * * * * * * * * * * * * * * * * * * * //

dimensions      [0 1 -1 0 0 0 0];

internalField   nonuniform List<vector> 
75457
(
(5.05859 0.330055 -0.800679)
(5.2051 -0.508572 -1.07114)
(7.22532 0.518572 -0.636598)
(9.37934 0.123705 -1.02327)
(4.00349 1.61972 -0.011138)
(4.1565 1.79181 -0.170688)
(5.48831 0.0387685 -0.592067)
(5.21197 1.03684 -1.03354)
(10.3514 -0.175234 -1.1978)
(10.1656 0.0577973 -0.998548)
(10.3645 0.23614 -0.965702)
(4.399 1.07958 0.158406)
(4.4943 0.851465 -0.281195)
(9.13261 0.353133 -0.461574)
(12.0184 -0.334533 -0.0842114)
(12.1098 -0.333541 -0.0707991)
(12.467 -0.402023 -0.235109)
(12.2451 -0.423185 -0.285872)
(12.191 -0.367234 -0.0974811)
(12.48 -0.348602 -0.170051)
(12.2957 -0.398948 -0.248847)
(12.3713 -0.394395 -0.116319)
(12.0802 -0.356648 -0.0878523)
(12.0751 -0.363026 -0.122302)
(12.348 -0.416287 -0.102444)
(11.8377 -0.401508 -0.262121)
(11.7933 -0.430133 -0.286386)
(11.3045 -0.715198 0.22602)
(11.142 -0.748754 0.333145)
(11.2458 -0.699148 0.201346)
(11.4101 -0.636322 0.188882)
(11.0606 -0.696807 0.272731)
(11.0697 -0.684171 0.287195)
(11.69 -0.537331 0.233392)
(11.6664 -0.511503 0.198675)
(11.8347 -0.536023 0.39287)
(11.7539 -0.577841 0.263905)
(11.0204 -0.737598 0.34006)
(11.1404 -0.708432 0.337521)
(11.7248 -0.468018 0.241474)
(11.7546 -0.4803 0.263282)
(11.7311 -0.494739 0.265021)
(11.8036 -0.579802 0.392114)
(12.7986 0.701216 0.649738)
(12.522 0.728501 0.594114)
(13.0053 0.695292 0.622204)
(13.0186 0.669291 0.647344)
(12.7559 0.732453 0.656912)
(12.5073 0.309346 0.130592)
(12.7317 0.454508 0.231209)
(12.7366 0.46733 0.213572)
(12.5793 0.329761 0.179747)
(12.2887 0.362951 0.0461693)
(12.6604 0.447036 0.206837)
(12.7953 0.416091 0.274474)
(12.7991 0.42124 0.242082)
(12.3824 0.465964 0.140347)
(12.4043 0.463727 0.120775)
(12.4685 0.308624 0.0840467)
(12.2505 0.348476 0.0332477)
(12.3371 0.413729 0.0929872)
(12.5587 0.330653 0.136536)
(9.93421 0.0567646 -0.296119)
(9.94164 0.0670377 -0.320713)
(10.1271 0.0900174 -0.251559)
(9.92645 0.0622061 -0.290121)
(9.94959 0.0567986 -0.27147)
(9.89827 0.0357501 -0.267645)
(9.91699 0.042165 -0.206949)
(9.80939 0.0284246 -0.229375)
(9.82607 0.00926328 -0.22713)
(9.77111 0.0026439 -0.239112)
(9.94857 0.0494892 -0.215143)
(10.1218 0.0913216 -0.251571)
(9.9288 0.0490617 -0.194229)
(10.1008 0.0817426 -0.220895)
(10.0906 0.0734135 -0.209302)
(0.701737 0.913134 0.675828)
(-0.983702 1.23292 -0.362647)
(-0.879578 1.05691 -0.371279)
(1.80798 1.12969 0.877513)
(-0.926231 1.59082 -0.0307527)
(0.553472 0.613104 0.324525)
(-0.304796 0.516522 -0.0961117)
(-0.590218 1.23279 -0.372278)
(-0.896126 1.41458 -0.569882)
(-0.3469 1.08727 -0.578181)
(-0.054374 0.878557 -0.755161)
(1.53807 0.76309 0.0436415)
(1.90685 1.09151 0.400252)
(0.206154 0.594706 -0.110458)
(-0.282263 0.533761 -0.350122)
(0.552443 1.22214 0.673743)
(-0.595385 0.904487 0.0897899)
(12.5533 -0.26645 -0.0157902)
(12.934 -0.271931 -0.01759)
(12.9341 -0.275086 -0.0172056)
(12.9534 -0.275994 -0.0122377)
(12.3348 -0.264599 -0.0170279)
(12.5876 -0.262555 -0.0169349)
(12.5848 -0.27515 0.00683519)
(12.4456 -0.254476 -0.015585)
(10.0175 -0.00989826 -0.0195554)
(10.0279 -0.00915332 -0.0164003)
(10.021 -0.014883 -0.021997)
(10.0213 -0.0194139 -0.0154361)
(10.0124 -0.0174095 -0.00658597)
(10.024 -0.0172845 -0.00570916)
(9.8556 0.000746014 -0.0203682)
(9.93377 -0.0144405 -0.0149067)
(9.94528 -0.0181598 -0.0109538)
(9.90242 -0.0188186 -0.00156888)
(9.87127 -0.0258157 -0.0229642)
(10.7559 0.115141 0.0670631)
(10.7924 0.138532 0.187198)
(10.3904 0.0974096 0.112708)
(10.3797 0.0320742 0.038228)
(10.7706 0.0869545 0.204706)
(10.6441 0.151429 0.116013)
(10.5446 0.201628 -0.0211094)
(10.8582 0.106794 0.268023)
(10.8506 0.131495 0.276946)
(10.7474 0.129399 0.270683)
(10.551 0.153579 0.127295)
(10.4527 0.12624 0.0896343)
(10.4974 0.12338 0.141797)
(10.5504 0.166116 0.0561636)
(10.4956 0.0934461 0.150457)
(10.5349 0.0579339 0.0823602)
(10.6353 0.117266 0.228739)
(10.7297 0.115858 0.246028)
(11.3226 0.00568378 0.378141)
(11.395 0.0788802 0.328605)
(11.3972 0.0553337 0.359628)
(11.3246 0.0332639 0.322983)
(11.3208 0.0190098 0.314769)
(11.3107 0.0792292 0.332214)
(11.2419 0.0377161 0.311053)
(11.2482 0.0275181 0.357673)
(11.1973 -0.00791629 0.329744)
(11.9514 0.0348821 0.189775)
(11.9584 0.0207298 0.210632)
(11.8494 0.0139109 0.244687)
(11.9626 0.0300066 0.159283)
(11.9958 0.0185452 0.179768)
(11.6932 0.0251195 0.12273)
(11.8666 0.00444842 0.252899)
(11.9003 -0.0059793 0.216524)
(12.8431 0.0424031 0.00993185)
(12.9362 0.058071 0.0430725)
(12.7043 0.0227943 -0.0541002)
(12.7256 0.0921779 0.0243445)
(13.1397 0.048936 0.143261)
(13.0835 0.0920278 0.187709)
(12.903 0.0561044 0.0849523)
(12.7354 0.0880431 0.0220081)
(12.704 0.0752043 0.0697512)
(12.6428 0.0740618 -0.000359452)
(13.0609 0.0838744 0.174704)
(12.7286 0.0911986 0.0338802)
(12.7453 0.0363781 -0.00472655)
(13.0429 0.0832213 0.216127)
(12.6604 0.0811019 0.0682436)
(11.5367 1.08486 0.907224)
(11.2916 1.24334 0.896831)
(11.2028 1.30751 0.857601)
(11.3931 1.21729 0.81014)
(11.2588 1.11129 0.769887)
(11.7336 0.947397 0.87511)
(11.5725 0.758573 0.56799)
(11.4482 0.883857 0.695473)
(11.5764 1.27454 1.03646)
(11.4586 0.95962 0.673031)
(11.5632 1.07548 0.710968)
(11.8279 1.14669 0.914318)
(11.6548 0.935507 0.616611)
(12.98 -0.0686127 -0.0697225)
(13.1032 -0.0290449 -0.0857289)
(12.9982 -0.00528234 -0.0370975)
(12.819 -0.0339843 -0.0116083)
(12.8477 -0.013258 0.000635957)
(12.7116 -0.0199436 -0.0399128)
(12.9501 -0.0688328 -0.0366286)
(12.8907 -0.0793721 -0.0132265)
(12.7503 -0.0868228 -0.00030347)
(13.096 -0.0343462 -0.0988607)
(12.8374 -0.0367697 -0.0295978)
(12.9813 -0.0612571 -0.0554248)
(12.7355 -0.0326857 -0.0147586)
(12.6913 -0.0255669 0.00125617)
(9.9627 -0.0915539 -0.741157)
(9.3953 -0.261542 -0.907451)
(9.23355 -0.0837121 -1.00661)
(8.54205 -0.138192 -0.817579)
(7.96391 -0.230293 -0.90034)
(8.37786 -0.109007 -0.882139)
(11.6745 0.42649 -0.638838)
(11.5191 0.274665 -0.483715)
(11.5965 0.253725 -0.457906)
(11.6931 0.316917 -0.490287)
(11.8059 0.338961 -0.497096)
(11.4436 0.229138 -0.208362)
(11.2953 0.355752 -0.142774)
(11.3425 0.349383 -0.114324)
(11.474 0.390238 -0.240002)
(11.7176 0.396254 -0.250114)
(11.5599 0.323224 -0.0630329)
(11.8913 -0.0018432 -0.095781)
(11.9409 -0.0142434 -0.0400355)
(11.9855 -0.0213162 -0.0360152)
(12.2052 -0.0452896 -0.0604982)
(12.1254 0.00098784 -0.111862)
(11.7995 -0.0111277 -0.057964)
(11.8055 0.0453564 -0.0817425)
(12.115 0.00243608 -0.125886)
(12.0039 -0.0019549 -0.0790644)
(11.8786 -0.0301917 -0.0241475)
(12.1082 0.00443045 -0.122942)
(11.77 0.0147576 -0.0888243)
(11.733 0.00546844 -0.0160437)
(11.7492 -0.0015304 -0.0407974)
(11.7692 0.447976 -0.0278467)
(11.8392 0.467105 0.0126587)
(11.6722 0.446743 -0.0227639)
(12.0126 0.421124 0.000464645)
(11.8733 0.407902 0.0410123)
(11.7708 0.49688 -0.0304833)
(11.8465 0.497972 -0.0073276)
(11.8068 0.533064 -0.0515327)
(11.7082 0.524208 -0.0245129)
(12.1054 0.486419 -0.0749529)
(12.1418 0.466032 -0.0647381)
(11.887 0.499702 -0.0171428)
(11.8662 0.498387 -0.03524)
(11.9258 0.496045 -0.00221646)
(12.2326 0.00612112 -0.259759)
(12.0136 1.59605e-05 -0.283135)
(12.414 -0.0485945 -0.260781)
(12.3651 -0.033591 -0.207463)
(12.3808 -0.0481742 -0.207082)
(12.4358 -0.0522782 -0.271487)
(12.1538 -0.00595708 -0.211764)
(12.0172 0.0227801 -0.248408)
(12.0171 -0.00222505 -0.264214)
(11.9774 -0.0090142 -0.255171)
(12.1399 -0.0218827 -0.276603)
(12.1264 -0.012547 -0.197052)
(12.1331 -0.00719196 -0.18652)
(11.9895 0.00202186 -0.268775)
(11.9422 -0.00722911 -0.254227)
(12.0634 -0.00140334 -0.194552)
(12.0212 0.0178133 -0.2484)
(10.6424 -0.0736197 0.088419)
(10.3895 0.0218303 0.00468137)
(10.4928 0.0286914 0.0149331)
(10.4702 0.044147 0.023283)
(10.7157 -0.122014 0.099426)
(10.8658 -0.150845 0.0759316)
(10.7785 -0.227081 0.230426)
(11.9375 -0.180458 0.250927)
(12.0028 -0.268746 0.248729)
(11.9499 -0.235399 0.248741)
(10.7136 -0.0779787 0.115378)
(10.6951 -0.172948 0.140541)
(12.354 0.336127 -0.256545)
(11.6902 0.223855 -0.00217644)
(11.8536 0.165837 -0.399472)
(11.7672 -0.00274365 -0.235857)
(11.7466 0.19981 0.00105172)
(11.9224 -0.030813 -0.260088)
(11.8496 0.00154808 -0.256835)
(11.8646 0.196294 -0.047439)
(12.0103 0.298659 -0.573238)
(11.8812 0.286979 -0.526521)
(12.2756 0.36121 -0.288523)
(11.9129 0.290178 -0.496205)
(12.2686 0.342056 -0.271421)
(12.361 0.0526545 0.147057)
(12.2881 0.0153316 0.16022)
(12.4897 0.0796328 0.177678)
(12.4049 0.00806791 0.203584)
(12.3781 -0.00500763 0.209358)
(12.2997 0.0449199 0.132024)
(12.3081 0.0120065 0.149916)
(12.3812 0.0329339 0.172893)
(12.3563 0.0135959 0.183326)
(12.3878 0.074599 0.141096)
(12.7393 0.158444 0.181047)
(12.6724 0.137581 0.173399)
(12.3923 0.0609057 0.141836)
(12.6069 0.130348 0.144393)
(12.5808 0.124002 0.139633)
(9.19597 0.164141 0.00498064)
(9.13611 0.133851 0.027441)
(8.9156 0.00466774 -0.0504925)
(8.91945 0.00666329 -0.0470745)
(9.07199 0.129064 -0.030886)
(9.19818 0.135036 -0.0115874)
(9.22234 0.157307 -0.0144362)
(9.02242 0.0560595 -0.0167695)
(9.08901 0.0709762 -0.00881835)
(2.53147 -0.0589672 -0.0656841)
(2.45571 -0.0187761 -0.039712)
(2.74409 -0.0892531 -0.194543)
(2.83121 -0.0909712 -0.201671)
(2.66908 -0.070412 -0.168502)
(2.52618 -0.025199 -0.140904)
(2.65438 -0.0571963 -0.230547)
(2.76276 -0.117499 -0.291617)
(2.58522 -0.0496525 -0.123772)
(2.80866 -0.112019 -0.246392)
(2.97448 -0.145141 -0.281324)
(2.80563 -0.131455 -0.15963)
(2.96811 -0.161699 -0.220959)
(1.33264 0.00767784 -0.182836)
(-0.449885 -0.102408 0.0182604)
(-0.384747 -0.20703 -0.531624)
(0.419414 -0.0953487 -0.447157)
(0.739401 -0.19976 -0.468229)
(0.544011 -0.209685 -0.239143)
(0.781069 -0.209183 -0.338938)
(-0.971789 -0.0833594 -0.650395)
(-1.12749 0.0057485 -0.436239)
(-1.2143 -0.0617754 -0.308569)
(-1.10831 -0.0832756 -0.396093)
(12.6989 0.175823 0.154773)
(12.8051 0.223593 0.167177)
(12.8096 0.236097 0.156084)
(12.5343 0.283731 0.071736)
(12.4663 0.271651 0.0558162)
(12.524 0.19282 0.0878352)
(12.5383 0.244361 0.0767803)
(12.4616 0.25575 0.0587992)
(12.3898 0.244592 0.0592983)
(12.6732 0.159254 0.144989)
(12.7123 0.183821 0.130761)
(12.248 0.115265 0.0471727)
(12.236 0.108566 0.0742565)
(12.2799 0.177903 0.0189017)
(12.4205 0.189188 0.0857368)
(12.2088 0.105216 0.0567075)
(12.193 0.106518 0.0327711)
(-1.44811 -0.179412 -0.985899)
(-1.16543 -0.674567 -0.51575)
(-1.34513 -0.268061 -0.685363)
(-1.03018 -1.22103 -0.224321)
(-2.37309 -0.0273065 -0.231916)
(-2.00223 -0.160572 -0.34596)
(-2.4443 0.157448 -0.471962)
(-0.609892 -1.01821 -0.0685373)
(-1.50309 -0.404221 -0.539737)
(-1.48887 -0.762459 -0.132083)
(-1.46506 -0.728058 -0.0957252)
(10.6696 0.341821 0.0409643)
(10.8136 0.351863 0.0103209)
(10.5885 0.238595 -0.00226939)
(10.1472 0.0763071 0.0153399)
(10.3957 0.25408 -0.0166624)
(9.7261 0.14191 -0.0688054)
(9.70577 0.127705 -0.0710513)
(10.0638 0.0820295 0.010779)
(10.4623 0.207324 0.0546012)
(9.91031 0.00908844 0.0158673)
(10.4253 0.208283 0.0421793)
(11.8012 0.227584 0.148304)
(11.8008 0.220643 0.119023)
(11.8085 0.243105 0.153469)
(11.8114 0.218391 0.111456)
(11.6143 0.210035 0.0701381)
(11.6712 0.225178 0.105)
(11.4094 0.285141 0.0487568)
(11.4898 0.284274 0.0716125)
(11.644 0.274704 0.103774)
(11.5232 0.270471 0.0723839)
(11.3427 0.265131 0.00170825)
(11.4029 0.273524 0.0173871)
(11.509 0.203402 0.0520151)
(11.5724 0.221738 0.0663298)
(11.4674 0.231647 0.0528265)
(3.32502 -0.296239 -0.399278)
(2.34601 -0.20536 -0.635099)
(2.00496 -0.160001 -0.915323)
(1.64191 -0.0307733 -0.972366)
(1.46817 -0.0219221 -0.899029)
(12.3803 -0.0391245 0.598516)
(12.478 -0.0614854 0.595012)
(12.6189 -0.0820516 0.651729)
(12.5509 -0.0724971 0.650284)
(12.8717 -0.125816 0.650244)
(12.8491 -0.135746 0.663382)
(12.6639 -0.0826006 0.632321)
(7.92474 2.54551 0.0271223)
(7.48059 2.71271 -0.488056)
(8.85839 2.3157 -0.24536)
(8.71243 2.59139 -0.402663)
(7.96307 3.00371 -0.0440514)
(7.4315 3.04268 -0.580123)
(8.06787 2.28387 0.0485306)
(7.55974 2.39011 -0.576909)
(8.18734 3.05848 -1.23296)
(7.33108 3.10724 -1.29985)
(8.26922 2.17035 -0.0520102)
(7.94441 2.17797 -0.64466)
(8.27059 2.72914 -1.14493)
(7.73846 2.68831 -0.970872)
(8.93428 2.22636 -0.251334)
(8.43606 2.48197 -1.07989)
(7.87869 2.43989 -0.910428)
(8.94817 2.27591 -0.452292)
(9.61791 2.10298 -0.293891)
(9.7728 1.94273 -0.370004)
(9.58301 1.99178 -0.594441)
(9.51038 2.08433 -0.684597)
(9.52346 1.80205 -0.587375)
(9.4448 2.11197 -0.677169)
(9.5664 1.94016 -0.166553)
(9.49706 2.11341 -0.216845)
(9.41924 2.23077 -0.551597)
(8.99393 2.05391 -0.496594)
(9.30654 1.73265 -0.416405)
(9.28957 1.90539 -0.211275)
(9.00662 2.24598 -0.166887)
(10.1966 3.22816 -0.920109)
(10.5476 2.79222 -0.851572)
(10.9705 2.12117 -0.319089)
(10.8851 2.0155 -0.322725)
(10.3427 2.50709 -0.831402)
(10.5671 2.49974 -0.748951)
(10.7024 2.23111 -0.470678)
(10.679 2.15553 -0.477866)
(10.45 3.2251 -0.767124)
(10.7822 2.954 -0.627443)
(9.95355 2.86032 -0.856097)
(10.0284 2.9554 -0.838894)
(10.744 2.64882 -0.249512)
(10.6568 2.44835 -0.227119)
(10.9625 2.38051 -0.308511)
(10.4017 2.19193 -0.549729)
(10.0899 2.65408 -0.498987)
(10.1601 2.78316 -0.528252)
(10.4674 2.74632 -0.281006)
(10.4572 2.60605 -0.307966)
(10.3889 2.87871 -0.448543)
(10.3085 2.54006 -0.376999)
(13.2022 -0.0634785 0.357491)
(12.9842 -0.0769878 0.329444)
(13.0622 -0.11984 0.344632)
(12.9847 -0.0736419 0.339258)
(13.0691 -0.11854 0.352063)
(13.2446 -0.0519755 0.376434)
(13.1065 -0.0487766 0.364619)
(13.2852 -0.0931359 0.349199)
(13.0654 -0.0723242 0.33376)
(13.2092 -0.050881 0.363011)
(13.209 -0.131217 0.342778)
(13.1049 -0.0606088 0.354849)
(13.275 -0.112388 0.344339)
(13.124 -0.0659193 0.346333)
(13.2907 -0.121474 0.341204)
(13.2521 -0.0699576 0.355898)
(4.7716 0.010539 -0.336929)
(-1.69126 -0.3309 -0.28174)
(2.6064 1.95984 0.436834)
(2.82922 2.4974 0.393293)
(10.0881 1.00067 -1.69682)
(10.2599 1.1271 -2.00399)
(4.42203 2.23047 -0.501198)
(4.70634 1.89825 -0.290616)
(10.7293 0.638485 -1.51507)
(10.878 0.646742 -1.70015)
(0.340878 0.444312 0.628762)
(6.17206 0.125796 -0.753057)
(4.60344 0.644031 -0.0832873)
(5.17597 1.95608 -0.269305)
(10.0648 1.11438 -1.49703)
(10.849 1.00739 -1.35393)
(12.5926 0.113603 0.311334)
(12.6461 0.159655 0.30026)
(12.5318 0.114146 0.247573)
(12.4879 0.11565 0.209006)
(12.4529 0.123981 0.219948)
(12.4659 0.114562 0.26966)
(12.5879 0.121896 0.262944)
(12.6535 0.132766 0.300699)
(12.5777 0.163024 0.309446)
(12.5349 0.101877 0.313755)
(12.3947 0.131974 0.210412)
(12.3747 0.0982548 0.159517)
(12.4302 0.119501 0.229199)
(12.4608 0.117412 0.271053)
(12.3886 0.098952 0.151777)
(12.457 0.105151 0.165035)
(12.5526 0.106746 0.198961)
(12.4985 0.117123 0.212797)
(9.72635 1.76028 -0.105224)
(9.42058 1.68412 0.643813)
(9.33126 2.05656 0.810807)
(9.70127 1.92538 0.152871)
(9.59556 2.07636 0.0277571)
(9.21252 2.53246 0.274956)
(8.69931 2.72245 0.241845)
(9.35181 1.7295 -0.100144)
(9.53396 2.0835 0.573368)
(9.00424 1.93574 0.614916)
(8.85485 2.20627 0.654037)
(8.79262 2.68346 0.364487)
(9.29439 2.42076 0.524946)
(9.71983 1.79132 0.350535)
(9.66457 1.62009 0.343207)
(9.61635 1.65797 -0.0475153)
(10.5704 0.663066 -0.250453)
(10.6446 0.664378 -0.201178)
(10.603 0.608026 -0.239838)
(10.6061 0.777085 -0.273921)
(10.7168 0.842617 -0.178662)
(10.5466 0.555409 -0.259598)
(10.481 0.639521 -0.329338)
(10.519 0.72944 -0.356159)
(10.5797 0.74609 -0.346587)
(10.5164 0.73287 -0.392195)
(10.5715 0.742453 -0.332122)
(10.6449 0.747889 -0.370015)
(10.592 0.737542 -0.414235)
(10.6972 0.765996 -0.316456)
(10.6371 0.735845 -0.309541)
(10.4873 0.602947 -0.296549)
(10.4537 0.632828 -0.354789)
(11.7064 -0.0526207 0.790816)
(11.713 -0.0263404 0.761817)
(11.8297 0.122626 0.657775)
(11.8316 0.155916 0.672711)
(11.8242 0.16332 0.677276)
(11.8233 0.118878 0.654259)
(11.7247 -0.0173911 0.857611)
(11.7011 -0.00814779 0.885033)
(11.8256 0.288368 0.803755)
(11.8176 0.379387 0.955981)
(11.6932 -0.013661 0.716401)
(11.8342 0.122337 0.662247)
(11.8384 0.287929 0.809784)
(11.8386 0.324076 0.892389)
(11.7005 0.00576165 0.684822)
(11.8764 0.286543 0.875775)
(11.769 0.00295686 0.821099)
(10.3207 -1.59373 0.355563)
(10.6534 -1.55222 0.365754)
(10.7791 -1.52477 0.487959)
(10.1743 -1.6308 0.439856)
(10.7033 -1.5152 0.250027)
(10.0864 -1.66934 0.353999)
(10.168 -1.569 -0.0128902)
(9.91943 -1.6943 -0.0143318)
(10.7514 -1.48079 0.301453)
(10.8544 -1.51859 0.402192)
(10.8321 -1.5048 0.504687)
(10.2225 -1.7047 0.403643)
(9.7098 -1.78011 -0.0855652)
(10.0699 -1.63159 -0.0271623)
(9.99058 -1.80335 -0.097678)
(10.3599 -1.49609 0.0365822)
(9.70657 -1.88522 -0.0543972)
(9.76255 -1.88039 -0.0675128)
(12.3356 -0.608658 0.2803)
(12.5249 -0.517951 0.333152)
(12.5138 -0.47497 0.314474)
(12.4838 -0.419291 0.173631)
(12.2768 -0.508121 0.138989)
(12.5348 -0.37383 0.274895)
(12.3149 -0.606279 0.281167)
(12.453 -0.508791 0.310251)
(12.435 -0.48755 0.293433)
(12.5131 -0.359537 0.272068)
(12.4128 -0.437744 0.162715)
(12.3677 -0.500078 0.25158)
(12.4367 -0.401837 0.208289)
(12.2504 -0.614942 0.206069)
(12.0216 -0.931808 0.484602)
(12.0763 -0.873422 0.50764)
(11.9934 -0.823163 0.819694)
(12.3359 -0.654413 0.840587)
(12.008 -0.810805 0.847359)
(11.98 -0.86017 0.829082)
(11.8288 -0.993135 0.595992)
(12.0967 -0.863523 0.483767)
(12.1798 -0.790873 0.536362)
(11.933 -0.979491 0.753719)
(11.949 -0.945626 0.738674)
(11.8738 -0.979029 0.624331)
(12.0985 -0.869712 0.524791)
(12.3817 -0.664556 0.625788)
(12.3789 -0.673678 0.612011)
(11.9336 -0.938052 0.579271)
(12.3507 -0.70614 0.678739)
(12.0599 -0.867355 0.693373)
(10.6116 3.34602 -0.773521)
(10.9843 3.27065 -0.678159)
(10.9789 3.02382 -0.630888)
(10.4119 3.27858 -0.546364)
(10.7224 3.47904 -0.551916)
(11.3298 2.97962 -0.337676)
(11.1814 2.61665 -0.304689)
(11.026 3.40537 -0.00275113)
(11.2373 3.22784 0.0335573)
(10.5779 3.33831 -0.159787)
(11.0887 2.54717 -0.249533)
(11.0796 3.57156 -0.182477)
(11.701 -0.169941 1.04726)
(12.3127 -0.113342 1.06711)
(11.4619 -0.35436 1.01358)
(12.279 -0.0958625 1.05951)
(11.56 -0.113738 1.08165)
(11.9434 -0.301736 0.911388)
(11.5162 -0.254248 1.0287)
(11.5722 -0.303934 0.983877)
(11.8096 -0.335635 0.956799)
(12.5595 -0.0794104 0.919946)
(12.6855 -0.0866599 0.835424)
(12.5275 -0.103946 0.900329)
(12.3085 -0.216248 0.821276)
(12.4359 -0.225718 0.779717)
(12.6614 -0.0967934 0.834468)
(12.4202 -0.211444 0.781118)
(12.5394 -0.139557 1.00034)
(12.3163 -0.0733139 0.975645)
(12.4556 -0.115718 0.982541)
(12.3075 -0.0661507 0.944985)
(11.9558 -0.111342 1.08103)
(11.8304 -0.263793 1.1279)
(11.4271 -0.343328 1.11574)
(11.9362 -0.086823 1.16039)
(11.9712 -0.101527 1.05809)
(12.2782 -0.0560711 0.9619)
(12.3899 -0.105638 0.975144)
(12.3546 -0.243306 1.02295)
(11.4954 -0.366959 1.07559)
(12.2616 -0.22347 0.990564)
(12.1198 -0.344801 1.00998)
(12.1268 -0.32671 1.02239)
(12.4425 0.468531 0.590065)
(12.5083 0.48359 0.612056)
(12.5595 0.41482 0.563353)
(12.3738 0.525084 0.440924)
(12.1767 0.70202 0.562836)
(12.3958 0.288934 0.529359)
(12.3234 0.299633 0.519871)
(12.5825 0.573003 0.554818)
(12.4696 0.647494 0.622999)
(12.4131 0.630907 0.461097)
(12.2625 0.715317 0.56064)
(12.3856 0.58902 0.62732)
(12.3242 0.548776 0.598968)
(12.2047 0.511919 0.624026)
(12.2914 0.431245 0.521757)
(12.4703 0.302977 0.533314)
(12.4321 0.360479 0.499601)
(12.3539 0.356169 0.51959)
(12.474 0.523669 0.50217)
(11.1692 -0.300036 -0.607417)
(11.126 -0.310649 -0.586312)
(11.5146 -0.312166 -0.513529)
(10.7696 -0.331303 -0.612535)
(11.2253 -0.284895 -0.603483)
(10.8511 -0.35154 -0.583346)
(11.1262 -0.362876 -0.605892)
(11.6436 -0.287184 -0.562181)
(11.1007 -0.36477 -0.510983)
(11.8685 -0.320561 -0.441174)
(10.864 -0.378285 -0.579018)
(11.248 -0.409365 -0.53192)
(11.3144 -0.415148 -0.443228)
(11.2972 -0.432717 -0.470553)
(9.0637 -0.368713 -0.330437)
(9.00658 -0.352428 -0.319021)
(9.72034 -0.379316 -0.214047)
(9.30556 -0.378547 -0.279551)
(9.38577 -0.359799 -0.260876)
(9.49204 -0.360857 -0.301504)
(10.1928 -0.312256 -0.172664)
(9.91839 -0.389682 -0.351987)
(9.73215 -0.386467 -0.369558)
(10.6465 -0.336281 -0.207785)
(10.4815 -0.308062 -0.209171)
(9.28834 -0.421534 -0.412199)
(10.373 -0.32984 -0.213698)
(10.144 -0.34665 -0.299426)
(10.1292 -0.348685 -0.294707)
(10.6283 -0.333526 -0.204036)
(10.5272 -0.307943 -0.207736)
(10.2139 -0.298471 -0.268781)
(11.7782 1.25647 -0.117436)
(11.4033 1.3587 -0.531633)
(11.0956 1.48932 -0.789179)
(12.4102 0.589054 -0.202441)
(12.3226 0.808725 -0.175481)
(11.7986 1.0765 -0.440208)
(11.9917 1.0018 -0.129435)
(12.5265 0.543534 -0.193907)
(12.3596 0.815284 -0.144695)
(11.4251 1.05995 -0.747569)
(11.9401 0.793239 -0.550634)
(4.78039 -1.05629 -0.835923)
(4.95512 -1.12021 -0.770933)
(4.75041 -0.827378 -0.777258)
(4.54308 -0.727796 -0.887303)
(3.48734 -0.089393 -1.12032)
(2.98336 0.243364 -0.817999)
(2.97947 0.297557 -1.14667)
(2.68694 0.377224 -0.912977)
(5.36858 -1.20913 -0.944659)
(5.73157 -1.2893 -0.898544)
(4.71822 -0.895722 -0.716966)
(4.07073 -0.312023 -0.854671)
(4.02799 -0.170579 -0.916164)
(3.61788 -0.160626 -0.75227)
(3.51623 0.0464268 -0.879714)
(3.55147 -0.0469442 -0.812838)
(2.98 0.233207 -1.00657)
(5.53794 -1.14813 -0.837101)
(5.2621 -0.89474 -0.946288)
(5.5941 -1.11404 -0.851454)
(4.95838 -0.857494 -1.08932)
(13.4161 -0.150081 0.456504)
(13.4235 -0.157699 0.424384)
(13.4147 -0.0867791 0.476866)
(13.4422 -0.11972 0.438798)
(13.4171 -0.0980454 0.484675)
(13.4092 -0.158025 0.443443)
(13.4089 -0.154278 0.459953)
(13.3989 -0.0841021 0.440587)
(13.3661 -0.0694855 0.469707)
(13.292 -0.0792589 0.495487)
(13.3018 -0.0998571 0.464195)
(13.2489 -0.0804169 0.494922)
(13.401 -0.0924366 0.433008)
(13.2908 -0.0715459 0.493416)
(13.2102 -0.0671509 0.469965)
(13.3113 -0.0823464 0.443609)
(13.2129 -0.0554361 0.471768)
(12.1931 0.163643 1.00284)
(12.0524 0.143492 1.01223)
(11.7604 0.0971415 1.08195)
(11.1296 0.106173 1.04333)
(12.1538 0.164939 1.03012)
(12.041 0.140827 1.06409)
(11.1711 0.417514 0.689865)
(11.1672 0.275786 0.839012)
(11.8659 0.107883 1.084)
(11.1168 0.148107 1.00878)
(11.287 0.276762 1.03287)
(7.87159 -0.0694247 0.388376)
(7.94924 0.0530063 0.268019)
(7.70161 0.0884819 0.296725)
(6.14066 -0.125178 0.0826771)
(7.23323 -0.103896 0.375327)
(5.27783 -0.11884 0.0515098)
(4.74893 -0.142613 0.0117689)
(5.80095 -0.107191 0.363005)
(7.24518 0.0337566 0.461953)
(7.46949 -0.00408488 0.337416)
(5.53433 -0.0322044 0.225509)
(6.00303 -0.0159506 0.205279)
(5.83163 0.0110001 0.369092)
(12.4244 -0.312597 -0.253714)
(12.3875 -0.290476 -0.244905)
(12.5015 -0.316245 -0.157986)
(12.5261 -0.318694 -0.161779)
(12.3315 -0.367653 -0.236737)
(12.3439 -0.353928 -0.224061)
(12.2989 -0.336452 -0.299488)
(12.278 -0.333402 -0.302782)
(12.4714 -0.287255 -0.171475)
(12.5415 -0.306801 -0.184709)
(12.3356 -0.289028 -0.256859)
(12.3553 -0.276869 -0.24382)
(12.5762 -0.311199 -0.151622)
(12.299 -0.347144 -0.263531)
(12.53 -0.296764 -0.135101)
(12.498 -0.291561 -0.151727)
(12.3421 -0.288986 -0.233469)
(12.3817 -0.283711 -0.210943)
(12.4877 -0.290066 -0.146927)
(12.4915 -0.295314 -0.143204)
(12.4497 -0.297696 -0.177276)
(12.3686 -0.313593 -0.21999)
(11.9606 -0.456228 -0.446464)
(12.4838 -0.397197 -0.379554)
(11.7095 -0.353887 -0.525428)
(12.5262 -0.302109 -0.414267)
(12.5658 -0.403848 -0.3756)
(11.4978 -0.450784 -0.404137)
(11.6466 -0.304579 -0.531074)
(12.5459 -0.292795 -0.409201)
(12.0939 -0.308622 -0.493314)
(11.4783 -0.44735 -0.380813)
(12.0448 -0.399156 -0.329909)
(12.0935 -0.425177 -0.373713)
(11.2781 -0.358894 -0.561009)
(12.502 -0.300699 -0.416201)
(12.0807 -0.297533 -0.495597)
(11.1442 -0.37461 -0.592262)
(11.6746 -0.322072 -0.594331)
(12.2752 -0.368839 -0.414491)
(12.5512 -0.380963 -0.383466)
(12.5205 -0.367281 -0.400991)
(12.8445 0.573034 0.345398)
(12.6282 0.626969 0.370778)
(12.4651 0.624371 0.486457)
(12.5269 0.579802 0.567508)
(12.8135 0.558048 0.325388)
(12.6614 0.597352 0.362272)
(12.4682 0.573552 0.573877)
(12.3721 0.608372 0.510482)
(12.8648 0.525179 0.454024)
(12.8323 0.475597 0.520968)
(12.8833 0.485754 0.478705)
(12.8123 0.53605 0.358555)
(12.7733 0.526198 0.35476)
(12.6412 0.589341 0.371427)
(12.9002 0.487817 0.485877)
(12.8484 0.47671 0.547585)
(12.79 0.469799 0.465404)
(12.6081 0.571137 0.368278)
(12.3544 0.575369 0.512391)
(12.4304 0.565521 0.60042)
(12.441 0.541382 0.50179)
(12.3678 0.559552 0.562472)
(11.2463 0.0402071 0.918478)
(11.3138 0.130862 0.92466)
(12.4476 0.156513 0.894385)
(12.3574 0.182094 0.883208)
(12.2495 0.121191 0.948147)
(12.1021 0.169124 0.961494)
(12.2863 0.118568 0.915608)
(12.2384 0.0951195 0.939746)
(12.0165 0.0576107 0.923921)
(11.3618 0.0471325 0.906395)
(11.2437 -0.0200152 0.888505)
(11.3666 0.0286638 0.879178)
(12.1571 0.21927 0.895431)
(12.2611 0.216445 0.852995)
(12.3766 0.177224 0.866351)
(11.4927 0.0729985 0.90408)
(11.741 0.161749 0.851485)
(12.5885 0.549489 0.925975)
(12.5965 0.62003 0.896074)
(12.8681 0.359342 0.850061)
(12.8278 0.465261 0.815299)
(12.8877 0.400988 0.826341)
(13.0079 0.361839 0.814055)
(13.0521 0.346457 0.78561)
(12.9239 0.559888 0.74389)
(12.8868 0.554508 0.758579)
(12.8245 0.64213 0.745663)
(12.8954 0.620309 0.739975)
(13.0358 0.409782 0.774689)
(12.8733 0.64914 0.741186)
(12.8024 0.647931 0.741655)
(10.9413 0.822666 -0.396691)
(10.8931 0.752326 -0.247629)
(10.838 0.70264 -0.245709)
(10.8752 0.763028 -0.42913)
(10.8085 0.75591 -0.434041)
(10.9383 0.612577 -0.292847)
(10.8795 0.550728 -0.264551)
(10.9725 0.675907 -0.305978)
(10.925 0.613199 -0.310412)
(10.8534 0.562198 -0.280613)
(13.2133 -0.181912 0.601531)
(13.2091 -0.202459 0.594026)
(13.1518 -0.146005 0.641618)
(13.1483 -0.146911 0.606843)
(13.1855 -0.242044 0.616255)
(13.1629 -0.251248 0.629323)
(13.179 -0.16153 0.617901)
(13.1565 -0.128027 0.633934)
(13.1735 -0.238299 0.627546)
(13.1492 -0.124748 0.655951)
(13.1596 -0.155417 0.679788)
(13.1538 -0.131686 0.68898)
(13.1521 -0.108752 0.663521)
(13.1417 -0.202714 0.67105)
(13.1639 -0.107097 0.667152)
(13.157 -0.125978 0.687977)
(13.132 -0.199137 0.671469)
(8.46676 0.0333338 0.146416)
(8.38225 0.0172496 0.189978)
(8.2332 0.0800628 0.222796)
(7.64157 -0.127126 0.025461)
(7.62219 -0.0842849 -0.0465137)
(8.12844 0.0892051 0.124746)
(8.3462 -0.355019 -0.351579)
(8.37095 -0.298133 -0.32381)
(8.18863 -0.260672 -0.271356)
(8.01457 -0.261816 -0.240767)
(8.30837 0.101718 0.24957)
(8.38359 0.0748108 0.175949)
(8.46 -0.0999214 0.0823351)
(8.47601 -0.0210677 0.0912353)
(7.98003 -0.222796 -0.224151)
(7.97834 -0.149857 -0.197209)
(7.66935 -0.0688836 -0.0818673)
(8.26771 0.074454 0.108344)
(8.42499 -0.122235 0.0476617)
(8.27225 -0.0296743 0.00728861)
(11.8249 -0.0115877 0.537812)
(11.6789 -0.0748504 0.52906)
(11.673 -0.0135433 0.510706)
(11.7873 0.0125985 0.531655)
(11.662 -0.118281 0.548117)
(11.3797 -0.0923465 0.538099)
(11.5953 -0.184847 0.525703)
(11.8402 -0.0283034 0.484458)
(11.8322 -0.00647419 0.515602)
(11.7778 -0.0680165 0.512774)
(11.4077 -0.207174 0.467573)
(11.3505 -0.121267 0.536624)
(11.8026 0.0180006 0.518095)
(11.5603 -0.0884195 0.512475)
(11.5674 -0.125412 0.493166)
(11.3134 -0.175947 0.493367)
(2.87961 -0.0388816 0.771268)
(2.94395 -0.257569 0.945741)
(1.94886 -0.205685 1.23367)
(1.88591 0.0572642 1.18639)
(5.75205 -0.536247 0.61771)
(4.24528 -0.394168 0.655558)
(7.44282 -0.136178 0.707428)
(5.47189 0.233706 0.791996)
(3.14708 0.500949 1.35003)
(4.5016 -0.0079214 1.0892)
(7.38406 -0.148679 0.611359)
(5.63114 -0.0967646 0.809235)
(4.65872 0.380114 0.762194)
(12.544 -0.0649367 1.09615)
(12.4995 0.0259329 1.17161)
(12.6093 -0.0930071 1.06679)
(12.7313 -0.103571 0.975678)
(12.8928 -0.102557 0.918055)
(12.7974 -0.0834419 1.00728)
(12.4864 0.0392236 1.18917)
(12.6333 0.155412 1.04557)
(12.7661 0.00616754 0.986447)
(12.7163 -0.079578 0.956515)
(12.9764 -0.0277386 0.888583)
(12.6573 0.213699 1.01363)
(11.7853 0.389868 -0.108035)
(11.738 0.291378 -0.139254)
(11.7882 0.256026 -0.152219)
(11.8793 0.389767 -0.0862495)
(11.8183 0.33354 -0.0898018)
(11.8567 0.308093 -0.10891)
(12.0117 0.371632 -0.110066)
(12.1041 0.381223 -0.126914)
(12.0065 0.282085 -0.128512)
(11.9614 0.269324 -0.127318)
(12.0245 0.600338 -0.210776)
(12.1102 0.594825 -0.210582)
(11.9448 0.546292 -0.236437)
(12.0068 0.538898 -0.219253)
(11.8519 0.535682 -0.242373)
(11.8971 0.456559 -0.162824)
(11.9149 0.362551 -0.0980001)
(11.9587 0.548513 -0.204272)
(11.9843 0.432073 -0.139605)
(11.7589 -0.409444 0.351081)
(11.7073 -0.372452 0.411769)
(11.9861 -0.313064 0.275244)
(11.9673 -0.255837 0.316806)
(12.0083 -0.249239 0.338506)
(12.3923 -0.310647 0.484238)
(12.2101 -0.329258 0.473151)
(11.8625 -0.351859 0.368798)
(12.16 -0.36955 0.319702)
(12.8817 -0.252142 0.620627)
(12.8774 -0.266134 0.61213)
(12.032 -0.349922 0.447846)
(12.8443 -0.314376 0.466075)
(12.6286 -0.326322 0.427806)
(12.8045 -0.263965 0.568951)
(12.9942 -0.25675 0.601613)
(13.0173 -0.241405 0.569498)
(12.6803 -0.331391 0.499416)
(12.9429 -0.245895 0.532043)
(1.29043 0.688174 -1.2087)
(1.40058 0.636464 -1.39397)
(2.11978 0.395738 -1.28384)
(1.8965 0.399279 -1.2099)
(1.60354 0.481247 -1.28278)
(1.69482 0.499949 -1.31184)
(2.16404 0.106965 -1.34527)
(2.48419 -0.0351266 -1.44512)
(2.75023 -0.10553 -1.38679)
(2.5467 0.0624996 -1.26037)
(3.15697 -0.212698 -1.16673)
(3.28946 -0.356607 -1.30655)
(2.73133 0.213543 -1.19514)
(3.15442 -0.2119 -1.38076)
(2.84394 0.175221 -1.15881)
(2.1808 0.34233 -1.30547)
(10.9285 0.503233 -0.316629)
(10.8465 0.471232 -0.249199)
(10.8989 0.479962 -0.329558)
(10.9935 0.539951 -0.39447)
(10.9261 0.533026 -0.66808)
(10.8494 0.524688 -0.661613)
(10.8552 0.477227 -0.306449)
(10.9558 0.549883 -0.535388)
(10.8938 0.557649 -0.656293)
(10.846 0.524284 -0.665885)
(10.8156 0.39845 -0.376985)
(10.9084 0.460229 -0.48742)
(10.8974 0.546139 -0.487769)
(10.778 0.409983 -0.379619)
(10.7366 0.407839 -0.387653)