/*--------------------------------*- C++ -*----------------------------------*\
  =========                 |
  \\      /  F ield         | OpenFOAM: The Open Source CFD Toolbox
   \\    /   O peration     | Website:  https://openfoam.org
    \\  /    A nd           | Version:  10
     \\/     M anipulation  |
\*---------------------------------------------------------------------------*/
FoamFile
{
    format      ascii;
    class       volScalarField;
    location    "2";
    object      C;
}
// * * * * * * * * * * * * * * * * * * * * * * * * * * * * * * * * * * * * * //

dimensions      [1 3 0 0 0 0 0];

internalField   nonuniform List<scalar> 
75457
(
3.37929e-06
4.20617e-06
1.91106e-05
3.95026e-05
2.82498e-06
4.18178e-06
9.98121e-06
5.93548e-06
8.15145e-05
6.77578e-05
6.41952e-05
4.94387e-06
7.64506e-06
4.5231e-05
1.39556e-23
4.28929e-23
4.65617e-22
2.06391e-22
1.20297e-22
1.3249e-22
9.58398e-23
3.42209e-22
2.5105e-22
4.26866e-22
1.10883e-21
1.2966e-22
4.33958e-23
1.45552e-31
4.90363e-32
4.13497e-32
1.20949e-32
7.17552e-33
3.42289e-33
1.10473e-31
3.36089e-32
8.93602e-32
1.87311e-31
1.42736e-32
6.28902e-33
1.22289e-32
3.40899e-32
5.4866e-33
3.20103e-32
4.62039e-17
6.21255e-17
9.74865e-17
5.94609e-17
3.98485e-17
3.12936e-23
8.91616e-23
1.84729e-22
6.67516e-23
1.62304e-23
5.02619e-23
1.87675e-22
4.11402e-22
4.75297e-23
8.80594e-23
5.83014e-23
2.52244e-23
3.3307e-23
1.6798e-22
0.389036
0.410069
0.415012
0.429796
0.456808
0.447662
0.446703
0.433089
0.456759
0.446176
0.427776
0.445272
0.459048
0.432541
0.449561
2.9131e-33
5.55187e-31
1.01355e-30
5.31973e-28
5.52078e-29
5.02136e-32
5.02e-31
1.57318e-32
2.55832e-32
1.69385e-30
3.7657e-31
3.77276e-29
4.64106e-28
1.07164e-30
7.75157e-32
7.28349e-29
1.54602e-31
5.44186e-15
1.27867e-14
1.2409e-14
2.54502e-14
4.4194e-15
5.92523e-15
1.88126e-14
1.00794e-14
0.5
0.5
0.5
0.5
0.5
0.5
0.5
0.5
0.5
0.5
0.5
0.355368
0.363428
0.424773
0.394491
0.36001
0.390687
0.38606
0.376106
0.377969
0.403474
0.415282
0.438421
0.441391
0.41038
0.401258
0.386134
0.428571
0.40623
0.0591877
0.0515
0.0493618
0.0633636
0.0508204
0.0894589
0.0786831
0.0767932
0.0600156
0.0033087
0.00258148
0.00291826
0.00209648
0.00197144
0.00179081
0.00182312
0.00137643
1.29198e-06
1.50914e-06
2.10969e-06
2.46887e-06
2.3363e-06
4.1616e-06
3.08382e-06
5.17528e-06
7.15487e-06
4.25745e-06
3.75915e-06
3.84393e-06
3.28832e-06
6.80703e-06
6.09686e-06
0.213047
0.244101
0.271641
0.232294
0.258803
0.188413
0.196782
0.220896
0.211238
0.231139
0.221543
0.185818
0.19159
2.61336e-08
2.83116e-08
5.51174e-08
2.30853e-08
4.23921e-08
2.20095e-08
1.83865e-08
1.14349e-08
8.85297e-09
1.50871e-08
1.2146e-08
8.53563e-09
7.23249e-09
1.04567e-08
1.23192e-10
1.22915e-10
2.29244e-10
4.63407e-11
4.29963e-11
6.28378e-11
0.000968432
0.00106629
0.000779576
0.000807082
0.000611888
0.000525585
0.00105346
0.000692325
0.000828789
0.000365408
0.000318074
4.73508e-14
3.6482e-14
2.20822e-14
1.98988e-14
3.85392e-14
1.63885e-14
2.12318e-14
7.67125e-15
3.52614e-15
1.03776e-14
1.90834e-14
1.04005e-14
7.59189e-15
5.6869e-15
0.000133934
8.80634e-05
7.90475e-05
3.77296e-05
5.72811e-05
4.44256e-05
7.93627e-05
0.00011856
7.21588e-05
8.56041e-05
5.81615e-05
3.34432e-05
0.000115844
5.17157e-05
3.81007e-16
3.53852e-16
4.56613e-17
2.25265e-17
4.57251e-17
1.06287e-16
2.00414e-16
1.57961e-16
1.46557e-16
1.45712e-17
2.34629e-17
1.93502e-17
7.78801e-17
5.71531e-17
3.95897e-17
4.23819e-17
8.25364e-17
4.29216e-15
4.0624e-15
1.83459e-14
8.46429e-15
3.91501e-14
2.97549e-14
8.57009e-15
4.02017e-14
1.02756e-13
7.54957e-14
1.10113e-14
1.37689e-14
4.87246e-17
4.03327e-17
4.23545e-17
2.94289e-17
9.2528e-17
3.88962e-16
1.51579e-16
2.17017e-16
6.73613e-16
2.67122e-16
1.09608e-16
1.25779e-16
2.34106e-16
3.60263e-09
5.64196e-09
2.88459e-09
2.19754e-08
1.35101e-08
1.25334e-08
9.88984e-09
2.63452e-08
1.79639e-08
6.2749e-09
1.1955e-08
6.53392e-09
2.19011e-08
9.1973e-09
1.81454e-08
3.35359e-36
8.86228e-36
1.04738e-36
1.72257e-36
1.47051e-36
2.80679e-35
1.00144e-35
3.65842e-36
1.14049e-35
3.66254e-40
5.1417e-40
2.94477e-39
1.23214e-39
3.24936e-39
9.37425e-40
1.33763e-39
5.91625e-39
3.78151e-40
5.55366e-40
1.81426e-39
2.60993e-40
6.60109e-40
1.06348e-26
1.70242e-27
3.99052e-28
4.46629e-27
1.53403e-26
9.42115e-27
1.53121e-26
8.71985e-29
2.68207e-28
1.65694e-27
3.65077e-28
5.15203e-17
6.83309e-17
1.421e-16
8.70835e-17
4.52721e-17
1.84455e-17
2.49449e-17
1.27153e-16
6.0955e-17
1.18944e-16
2.84294e-16
1.18681e-16
4.9007e-17
2.81119e-17
2.10352e-16
3.27933e-17
6.10816e-17
2.88526e-17
4.86662e-18
3.91481e-19
1.01451e-18
3.36613e-18
1.14333e-16
6.34958e-18
5.18876e-18
9.26002e-17
3.07025e-19
1.18425e-18
1.30014e-26
2.01817e-26
6.86452e-26
4.72856e-26
5.27751e-27
1.89631e-26
6.56262e-27
1.73855e-26
2.54837e-26
5.99517e-27
1.14747e-26
2.26228e-35
6.24074e-35
4.34068e-35
1.4201e-34
2.0411e-35
8.9599e-36
3.33585e-35
1.61216e-35
5.22454e-35
1.10427e-34
1.15132e-35
6.75562e-36
3.87182e-35
1.07998e-34
3.92704e-35
3.35546e-25
8.57678e-26
9.74418e-25
6.99887e-25
1.69077e-25
1.75294e-19
4.07294e-19
2.02943e-19
3.65282e-19
7.42498e-19
4.04441e-19
1.14104e-18
0.00788781
0.00637016
0.0132674
0.0106666
0.00648245
0.00512935
0.00975862
0.00744426
0.00577232
0.00459241
0.0121355
0.00943847
0.00697556
0.00632724
0.0146424
0.00882184
0.00761916
0.012378
0.0156258
0.0177007
0.0169066
0.0147111
0.0200807
0.0162656
0.0205325
0.0175217
0.0132057
0.0153129
0.0189854
0.0207015
0.0150669
0.00396075
0.00520035
0.00828813
0.00968251
0.00778838
0.00708092
0.00872795
0.0102274
0.00386727
0.0044434
0.00574627
0.00499179
0.00707977
0.00836306
0.00679339
0.0109254
0.00779769
0.00657184
0.00746111
0.00884482
0.00580386
0.00954435
1.0085e-12
1.19666e-12
1.17832e-12
2.22732e-12
2.17059e-12
9.54421e-12
6.19272e-12
9.13673e-12
9.33137e-13
1.94995e-12
1.22813e-12
3.81996e-12
5.81121e-12
1.82231e-12
2.86182e-12
2.78907e-12
3.51923e-05
9.22144e-06
7.32356e-06
1.01463e-05
0.000154883
0.000187085
2.85059e-05
2.75751e-05
0.000179155
0.000220556
9.46796e-06
6.49513e-05
2.59693e-05
4.76155e-05
0.000120085
0.00013647
0.000168
0.000108052
0.00015718
0.000198759
0.000231329
0.000293778
0.000123682
8.81142e-05
0.000148562
0.00024295
0.000425097
0.000323091
0.000314751
0.000204852
0.000201104
0.000146377
0.000116554
0.000171823
0.0254027
0.0217788
0.0175945
0.0197017
0.0165726
0.0114289
0.0105667
0.0240714
0.0167326
0.0158187
0.0139646
0.0117166
0.0131604
0.0214875
0.0246818
0.0296875
0.189863
0.190198
0.221528
0.180239
0.175012
0.247451
0.268251
0.243815
0.217264
0.263746
0.246168
0.213748
0.234068
0.20561
0.227639
0.286649
0.297603
0.0166738
0.0207886
0.0189315
0.02336
0.0189141
0.0157256
0.0140555
0.0157613
0.0166106
0.0131752
0.0128401
0.0129831
0.0133461
0.0119672
0.0105682
0.00978397
0.0111084
3.52771e-26
1.10002e-25
3.13e-25
1.24186e-25
1.96496e-25
4.8507e-26
8.47968e-26
2.62769e-26
5.12923e-25
1.14466e-24
6.67433e-25
2.4702e-25
5.36048e-26
4.81068e-25
4.06386e-25
6.5703e-25
5.58233e-26
1.39612e-25
6.69794e-25
2.10381e-24
7.94524e-25
3.19261e-25
2.73977e-25
3.84326e-25
2.75891e-25
3.11414e-25
9.78606e-26
1.26715e-25
1.27331e-25
3.39294e-26
4.61369e-26
1.09311e-25
5.23895e-23
3.42099e-23
5.52649e-23
2.70825e-22
2.06917e-22
1.14071e-22
4.6804e-23
1.37042e-22
8.61828e-23
1.4825e-22
2.84482e-22
1.13072e-22
1.95171e-22
1.90482e-22
3.71006e-22
2.85712e-22
5.93442e-22
5.0583e-22
0.00306722
0.00275613
0.00342151
0.00379401
0.00298231
0.00268211
0.00387211
0.00404681
0.00360882
0.00524484
0.00533153
0.00275003
1.71977e-15
2.6838e-15
9.23249e-15
5.55484e-15
3.43134e-15
3.05192e-15
1.16017e-14
2.08169e-14
5.39713e-15
6.3415e-15
9.16075e-15
3.57873e-14
4.39639e-14
1.38376e-14
1.58645e-14
2.64514e-14
1.525e-24
9.87468e-25
6.0583e-25
4.74377e-25
4.08118e-25
5.75218e-25
6.40295e-26
7.41821e-26
2.15234e-25
2.50124e-25
3.25663e-25
1.29335e-24
1.92636e-25
1.34116e-25
2.28395e-25
4.61375e-25
0.000298046
0.000205216
0.000133342
0.000249975
0.000332075
0.000236992
0.000340925
0.000110341
0.000162894
0.00020154
0.000238697
0.000232364
0.000334797
0.000507576
0.000392296
0.000165895
0.000224068
0.000320795
0.000155859
8.28893e-26
2.89451e-26
4.69529e-27
2.98854e-25
1.69218e-25
3.66661e-26
1.06976e-24
5.65931e-25
1.52665e-26
5.09085e-26
1.01591e-25
4.86801e-25
4.55544e-26
1.46959e-25
7.92177e-31
3.29645e-31
1.30485e-30
2.10963e-30
3.1103e-31
8.74047e-30
6.15638e-30
2.41479e-30
5.14493e-30
2.50969e-29
5.78991e-30
1.80272e-29
8.04317e-29
8.22913e-30
2.60747e-29
7.80091e-30
2.7618e-30
4.31675e-29
1.11014e-05
5.33089e-06
6.62314e-06
1.36034e-05
1.95869e-05
4.14833e-06
7.70776e-06
9.21735e-06
1.30011e-05
4.68009e-06
4.46695e-06
1.40124e-27
2.6221e-27
5.96085e-27
2.58049e-27
1.36278e-27
4.05618e-27
7.18705e-28
1.66713e-27
1.58096e-27
3.14474e-27
7.18985e-27
4.79706e-27
2.29821e-27
5.20432e-27
2.09083e-27
4.36281e-27
8.63784e-28
6.9054e-27
2.64476e-27
5.57292e-27
1.11136e-27
4.3794e-11
5.4979e-11
1.62969e-10
9.52142e-11
9.98364e-11
1.66075e-11
2.53516e-11
8.21339e-11
1.33062e-10
2.89863e-11
1.02092e-11
1.63415e-11
4.43961e-11
4.96901e-11
2.97671e-11
1.9368e-11
6.02431e-11
3.30865e-23
1.96755e-23
3.33137e-23
1.01649e-23
6.85785e-23
3.79552e-23
2.10167e-23
1.11535e-23
5.47194e-23
1.68621e-23
3.68301e-23
1.36073e-26
4.94273e-27
4.63681e-27
6.39007e-28
4.8757e-27
1.07347e-28
6.7996e-29
1.77072e-27
1.08387e-27
1.11219e-27
8.04861e-29
1.17178e-28
3.24994e-28
3.38317e-26
1.20774e-26
4.73259e-27
1.44308e-26
1.38622e-26
4.37564e-27
1.95496e-26
6.63238e-27
8.13543e-27
2.50817e-26
1.659e-27
4.89878e-27
1.69197e-26
2.43718e-27
4.93267e-27
1.66755e-27
9.40023e-28
1.87373e-27
8.47886e-28
1.5046e-27
3.03499e-27
6.81127e-28
1.13529e-19
1.06817e-19
8.31241e-20
5.15135e-20
3.32818e-20
1.21162e-20
4.82891e-20
2.31925e-20
1.43168e-20
3.20403e-21
1.65757e-21
6.27445e-21
1.39546e-20
1.09123e-20
6.55533e-21
5.08863e-21
2.19764e-21
1.08213e-21
1.31363e-20
4.72505e-21
7.65761e-22
8.56261e-22
1.6679e-21
1.6096e-21
3.5908e-22
4.10597e-22
6.70835e-22
6.65741e-22
8.38669e-22
1.37489e-22
2.54229e-22
1.6375e-22
7.03538e-23
1.96749e-22
5.24223e-22
2.22e-22
5.35312e-23
8.67305e-23
3.09996e-22
2.99505e-22
6.63108e-23
1.80195e-22
1.74872e-24
2.7478e-24
1.69778e-23
2.9096e-23
6.62871e-24
6.72744e-24
2.23386e-24
3.17805e-24
1.28262e-24
1.15234e-24
2.99701e-24
6.07338e-24
1.45013e-23
8.53342e-24
6.11826e-24
2.00171e-24
4.86088e-24
3.40719e-15
2.14046e-15
3.59601e-15
5.09444e-15
5.01347e-15
1.60538e-15
3.18637e-15
2.45283e-15
4.23882e-15
2.51427e-15
1.56623e-15
1.70599e-15
1.03581e-15
1.33109e-15
0.0299626
0.04963
0.0592263
0.0337677
0.041538
0.050794
0.0608178
0.0397295
0.0456318
0.0566721
8.08464e-16
4.02073e-16
9.72464e-17
2.19643e-16
2.75611e-16
4.7183e-16
4.33888e-16
9.13475e-16
1.30424e-16
1.46467e-16
1.32658e-16
2.62998e-16
2.81655e-16
1.27329e-16
5.28435e-16
4.98578e-16
2.59117e-16
2.43475e-15
5.20634e-15
8.31126e-16
1.56913e-15
5.73191e-16
3.1489e-16
7.77572e-15
3.30891e-15
1.63214e-15
2.32378e-15
1.01124e-15
8.13492e-16
5.52283e-15
2.00487e-15
4.11541e-15
5.72947e-16
2.45225e-16
3.33282e-16
1.21065e-15
3.80536e-16
0.0273432
0.0196932
0.016878
0.0217586
0.0227288
0.0153228
0.0332775
0.0363041
0.0315603
0.0306029
0.0260368
0.0184358
0.0256027
0.0205265
0.0250353
0.022065
7.14656e-08
2.88878e-08
1.3898e-08
2.8822e-08
2.20975e-07
4.83843e-08
4.30872e-07
2.44401e-07
5.65114e-08
5.34607e-08
2.41545e-07
1.04621e-07
1.31312e-07
2.50477e-17
3.80752e-17
3.82476e-17
8.49335e-17
4.85725e-17
2.38888e-17
5.98121e-17
6.84359e-17
4.243e-17
1.64738e-16
7.93802e-17
1.12299e-16
0.00194081
0.00197711
0.00151544
0.0014545
0.00135636
0.00125467
0.000851436
0.00064614
0.000830934
0.00112496
0.00131087
0.000992862
0.00146977
0.00111178
0.00205918
0.00128388
0.000940248
0.00163639
0.000962535
8.31338e-14
3.8668e-14
4.42924e-14
2.46236e-14
2.31552e-14
8.44231e-14
3.92564e-14
1.81506e-14
7.19744e-14
2.90852e-14
5.51753e-14
1.05298e-14
9.66533e-14
3.98971e-14
1.12184e-13
3.07002e-14
5.28794e-14
1.95026e-14
1.02556e-13
4.15358e-30
1.17035e-29
3.67033e-29
1.41087e-29
1.51189e-29
4.01072e-29
1.07614e-29
1.08951e-29
1.74549e-29
7.23723e-29
2.68484e-28
1.0461e-28
1.2821e-28
5.20274e-29
3.45011e-28
9.03005e-29
0.0217785
0.0239783
0.0176398
0.0164753
0.0157984
0.0196136
0.0298922
0.0182293
0.019932
0.0248007
0.0236267
0.0182498
0.0231945
0.031398
0.0439467
0.0329911
8.93333e-08
6.39423e-08
4.01685e-08
3.51959e-08
1.52554e-07
9.73272e-08
2.66813e-08
4.36942e-08
7.60068e-08
1.28383e-07
4.52496e-08
7.5218e-08
6.23259e-08
1.59755e-07
2.43939e-07
3.40692e-08
9.48734e-08
5.75262e-08
1.26076e-07
1.17536e-07
0.310064
0.411441
0.399363
0.382744
0.309017
0.348797
0.39116
0.379555
0.378405
0.396529
0.414989
0.369184
0.412912
0.391521
0.367527
0.00299727
0.00436164
0.0013941
0.00198264
0.0028408
0.0036057
0.00135745
0.00172788
0.000609834
0.000588528
0.000943274
0.000893694
0.000807253
0.00130095
2.65445e-07
3.46888e-07
6.71846e-07
5.38459e-07
1.62943e-07
2.34546e-07
4.25615e-07
4.11787e-07
8.98413e-07
1.12044e-06
7.1742e-07
6.96224e-07
4.31705e-07
2.92484e-07
7.7926e-07
5.01869e-07
1.92166e-21
9.02338e-22
2.19494e-21
5.55212e-21
5.04772e-22
1.06041e-21
1.74522e-21
4.21529e-21
8.53956e-21
6.95562e-22
3.87933e-22
1.13889e-21
2.08123e-21
7.10257e-21
2.7671e-22
2.61486e-21
9.64644e-22
4.08763e-21
1.63131e-21
9.26393e-13
1.84315e-13
1.30063e-13
8.12255e-13
1.90201e-12
5.26953e-14
4.11394e-13
4.46679e-13
1.21357e-12
5.53845e-13
2.99994e-13
2.43474e-13
6.73336e-13
3.3683e-13
2.17483e-13
1.32413e-13
6.59372e-12
2.92239e-12
6.1399e-13
1.30731e-12
4.58391e-12
1.83303e-12
7.91857e-13
4.84005e-13
2.21845e-12
0.458877
0.410645
0.390627
0.453346
0.468873
0.410745
0.406266
0.428708
0.431223
0.415426
0.430966
0.41391
0.462543
0.445703
0.460157
0.45667
0.44118
0.42569
0.412877
0.45057
2.75121e-07
1.94779e-07
2.09352e-07
1.10908e-07
1.6244e-07
2.24317e-07
1.65237e-07
1.1922e-07
1.6793e-07
9.70476e-08
6.37971e-08
9.31928e-08
1.48528e-23
2.87306e-23
2.62007e-24
2.33423e-24
9.7254e-25
2.96759e-23
2.78164e-23
1.49047e-23
5.91972e-24
5.9103e-24
1.20517e-24
2.14872e-24
2.88315e-24
4.60543e-24
6.92157e-24
6.48947e-24
1.17805e-23
1.54592e-23
5.75718e-28
1.27039e-28
3.06614e-28
5.54878e-29
2.39867e-28
4.78824e-27
1.8359e-27
2.05939e-27
6.61883e-28
9.3154e-29
2.33534e-28
7.64421e-28
1.3203e-26
4.4221e-27
1.67093e-27
7.05858e-28
3.99837e-27
1.33666e-27
2.08567e-28
5.61494e-29
1.59424e-28
1.24159e-28
2.2567e-29
1.80076e-28
2.80836e-29
9.81027e-30
5.83619e-28
8.27557e-29
2.33063e-28
8.87969e-29
2.83389e-29
1.61825e-29
7.08748e-29
6.99848e-28
2.75675e-28
1.88583e-24
2.54841e-24
3.50297e-24
1.53459e-23
5.24132e-24
3.40878e-24
8.47159e-24
9.87438e-24
1.78691e-24
6.08657e-13
3.84248e-13
1.47389e-13
3.14619e-13
6.16819e-14
1.01956e-13
6.09054e-14
8.26545e-14
1.48332e-13
2.00024e-13
3.92736e-14
1.06577e-13
4.87154e-24
2.12902e-24
3.62731e-24
2.98702e-24
7.18526e-24
1.25557e-23
5.43694e-24
7.95464e-24
2.07901e-23
1.77278e-23
3.30879e-23
1.04587e-23
9.02641e-24
1.6942e-23
2.02274e-23
2.37619e-23
0.160476
0.13424
0.181659
0.143595
0.138383
0.118136
0.132048
0.143235
0.172578
0.191838
3.0352e-16
1.44742e-16
7.95473e-16
7.6602e-16
5.38841e-16
2.62619e-16
1.1765e-15
1.10389e-15
4.06169e-17
5.25226e-16
1.59718e-16
1.31157e-16
3.2698e-16
3.3472e-16
1.51616e-16
5.86024e-17
7.22052e-17
6.96274e-16
1.96115e-21
3.25778e-21
7.84395e-22
4.37338e-21
9.89639e-21
1.64888e-21
1.63382e-21
6.91138e-22
5.41812e-21
2.77341e-20
1.27423e-20
6.28971e-21
3.05351e-21
1.62866e-20
2.18496e-21
4.0295e-21
9.21718e-21
4.40234e-21
0.00266118
0.00201444
0.00143147
0.00192263
0.00125813
0.000951887
0.00384154
0.00268881
0.00146912
0.00293965
0.00183999
0.00144534
0.00202133
0.00135891
0.498425
0.497147
0.497402
0.495901
0.499354
0.496741
0.496302
0.497823
0.498971
0.498528
0.499191
0.499554
0.494488
0.49415
0.497457
0.49836
0.499369
0.499093
0.497891
0.496754
1.24718e-06
7.28708e-07
1.36906e-06
3.02727e-06
6.3293e-07
3.20661e-07
4.83083e-07
1.35688e-07
3.96459e-06
1.75384e-06
7.00499e-07
1.46513e-06
1.04453e-06
2.52175e-07
2.08106e-06
2.04103e-06
2.61194e-06
4.27412e-06
4.00922e-06
7.22662e-05
0.000110488
6.07675e-05
8.18495e-05
1.38926e-05
1.51711e-05
3.10512e-05
2.25882e-05
5.23199e-05
4.5218e-05
3.11164e-05
9.07188e-05
9.55294e-05
2.21848e-05
2.15155e-05
2.3623e-05
4.50267e-05
4.1619e-05
6.665e-05
3.72754e-05
1.13497e-29
4.34705e-29
6.9984e-30
1.24239e-28
2.64039e-29
1.24174e-29
2.19489e-29
2.3982e-29
7.10746e-29
2.85551e-29
4.16363e-30
1.55284e-29
1.88625e-29
8.06181e-29
5.83742e-29
4.14434e-29
6.45131e-28
2.34411e-28
1.89296e-28
6.16908e-17
3.7899e-17
1.24329e-17
7.12626e-18
2.66476e-17
3.28461e-17
1.19984e-16
7.13476e-17
3.80988e-17
1.19521e-16
6.62362e-17
2.05173e-17
2.01147e-17
3.26725e-17
8.77848e-18
1.04812e-17
0.5
0.5
0.5
0.5
0.5
0.5
0.5
0.5
0.5
0.5
0.5
0.5
0.5
0.5
0.5
0.5
0.5
0.5
0.5
0.5
4.28669e-05
4.44728e-05
7.02667e-05
5.52895e-05
3.95643e-05
2.74679e-05
3.0007e-05
2.42015e-05
2.91819e-05
4.56729e-05
3.66464e-05
2.00229e-05
2.09586e-05
1.72243e-05
1.31951e-05
1.10855e-05
2.43735e-05
1.61669e-05
1.59826e-05
2.85681e-05
0.5
0.5
0.5
0.5
0.5
0.5
0.5
0.5
0.5
0.5
0.5
0.5
0.5
0.5
0.5
0.5
0.5
4.77813e-24
3.35472e-24
1.20867e-23
5.59545e-24
1.09838e-23
5.72889e-24
2.86958e-24
1.37347e-23
2.31386e-24
7.05163e-24
3.16056e-24
1.74444e-24
0.497966
0.497526
0.499873
0.499809
0.499372
0.498735
0.495968
0.496296
0.499517
0.499889
0.499617
0.49899
0.499505
0.499664
0.497263
0.499342
0.499191
0.49972
0.499852
0.498669
0.499151
0.151642
0.12897
0.140084
0.163358
0.182284
0.121506
0.148471
0.220008
0.194523
0.208168
0.186058
0.175277
0.145331
0.139539
0.16178
0.187894
0.196595
0.162737
0.04134
0.033429
0.0552268
0.0458294
0.0390223
0.0516722
0.0668987
0.0755474
0.050745
0.0626498
0.0929962
0.0743484
0.0769222
0.0610537
0.0583229
0.171098
0.213702
0.212331
0.16803
0.156761
0.271527
0.252655
0.243642
0.177929
0.209176
0.22412
0.226371
0.279087
0.262557
1.43838e-06
2.43882e-06
9.10772e-07
6.70853e-07
1.22309e-06
7.77792e-07
3.93965e-06
2.22497e-06
1.01959e-06
1.41333e-06
1.89995e-06
3.71374e-06
4.82431e-06
2.37991e-06
3.00351e-06
1.96844e-06
0.379783
0.379894
0.403807
0.376356
0.354934
0.38599
0.374294
0.358157
0.405685
0.394491
0.405131
0.415985
0.383764
0.441032
0.428278
0.42511
0.406931
0.499997
0.499998
0.49997
0.499988
0.499994
0.499999
0.5
0.499999
0.499988
0.499995
0.5
0.5
0.5
0.5
0.499999
0.5
0.499999
0.000187954
0.000229774
0.000185087
0.000267866
0.000315143
9.90533e-05
9.44773e-05
0.000184006
7.4855e-05
6.70998e-05
0.000120711
0.000139914
0.000109489
0.000245068
1.93091e-14
2.2116e-14
1.44998e-15
1.4445e-14
0.0187793
0.022072
0.0369358
0.0293742
0.0239992
0.0167399
0.0147789
0.0306063
0.0388302
0.0295976
0.0274152
0.0332481
0.0189048
0.015891
0.0125794
0.0266554
0.0162505
0.0214314
0.0140827
0.0229969
0.0211435
0.0187031
4.19696e-24
2.61045e-24
4.25098e-24
2.15564e-24
3.54058e-25
7.59601e-25
1.86397e-25
5.41496e-26
1.39435e-24
1.25235e-24
6.0364e-25
1.11096e-25
7.80269e-26
4.11485e-26
7.59547e-26
2.98263e-25
4.5156e-25
1.57272e-24
1.61132e-25
1.7992e-25
1.17758e-24
5.75113e-25
1.72644e-25
3.1305e-25
1.06965e-24
7.37924e-25
2.52393e-25
4.73485e-26
6.53894e-26
1.59461e-26
2.22901e-25
6.55779e-26
2.79368e-25
3.83524e-25
1.44737e-25
1.14067e-25
2.37773e-26
5.8588e-26
2.80019e-23
4.78077e-23
1.408e-22
5.30865e-23
1.78038e-22
4.7214e-22
1.00678e-22
2.43119e-22
1.30563e-23
3.2934e-22
1.5383e-22
2.79205e-22
6.64031e-23
5.99505e-23
2.72753e-23
3.70766e-22
2.42546e-22
1.05322e-22
1.25202e-22
2.95611e-13
1.14102e-13
3.711e-14
5.80947e-14
7.30131e-14
2.77145e-14
2.1327e-13
6.52253e-13
1.17915e-14
1.93893e-14
6.67548e-15
7.05359e-14
3.3163e-14
2.48194e-13
8.36165e-14
4.8406e-13
1.4522e-13
4.57875e-14
1.58429e-14
4.04347e-15
1.46521e-14
7.79992e-15
0.000165231
8.95116e-05
5.73461e-05
8.56417e-05
0.000122277
0.000201692
0.000201102
0.000114742
8.15262e-05
4.46415e-05
5.96494e-05
8.36821e-05
6.29828e-05
8.02702e-05
0.000144482
0.000158194
0.000111109
5.10268e-05
9.77074e-05
1.35022e-13
6.50809e-14
4.94948e-14
8.54237e-14
1.63039e-13
7.6999e-14
1.40001e-13
3.12155e-13
9.23144e-14
3.0289e-13
1.33562e-13
1.32625e-14
3.02906e-14
2.3752e-14
5.4055e-14
2.35799e-14
4.21677e-14
5.49669e-07
3.48845e-07
3.25903e-07
4.08216e-07
3.48748e-07
2.34143e-07
1.50732e-07
2.23874e-07
2.23265e-07
1.00659e-07
2.68701e-07
2.05475e-07
9.45541e-08
1.69568e-07
9.07796e-27
2.82041e-26
4.17194e-26
7.28007e-26
1.57541e-25
1.53085e-25
1.63046e-26
4.93461e-26
3.67195e-25
9.18044e-25
9.81215e-25
3.47621e-26
1.32612e-25
2.7726e-25
2.88332e-25
3.72663e-26
1.0205e-25
5.74086e-35
1.68324e-34
1.24939e-34
5.66553e-35
8.97487e-35
2.44299e-34
3.08532e-35
7.2997e-35
3.32863e-34
1.32177e-34
4.58694e-34
3.18944e-34
3.30976e-34
6.36075e-34
2.06267e-35
1.30235e-34
1.322e-33
9.05551e-34
1.47854e-33
2.3642e-34
1.00653e-34
5.04526e-35
9.92019e-35
2.91022e-35
4.04622e-35
1.37482e-35
5.73458e-35
5.4198e-35
2.82917e-35
1.50962e-34
2.97193e-34
8.75026e-35
1.88229e-34
2.75754e-34
5.98574e-34
5.85224e-34
7.45147e-34
1.39739e-33
1.10453e-34
3.00735e-34
1.47106e-22
2.98928e-22
3.29114e-21
3.62058e-21
5.3476e-21
8.45283e-21
3.67622e-22
9.24421e-22
7.58638e-22
1.30569e-22
4.02345e-22
1.63676e-21
5.00313e-21
3.82532e-21
6.69718e-22
2.08323e-21
4.07783e-22
7.96866e-05
5.68465e-05
5.17384e-05
7.05311e-05
5.52341e-05
4.56991e-05
3.46019e-05
9.00249e-05
7.13215e-05
4.57466e-05
4.93589e-19
4.81106e-19
4.02597e-18
1.89193e-18
3.43186e-18
2.62154e-18
2.73671e-18
4.45746e-18
9.3881e-18
4.30889e-18
1.33602e-17
1.13845e-17
6.22577e-18
8.92024e-19
7.93087e-19
1.48897e-18
5.53692e-18
2.44349e-18
2.64267e-15
1.11411e-15
1.29537e-15
6.53368e-16
5.07192e-15
2.22567e-15
3.60703e-16
6.36516e-16
1.68931e-15
8.9399e-16
1.34052e-15
2.63953e-15
2.76563e-15
5.96042e-33
2.1794e-33
9.45946e-33
3.54698e-33
3.51531e-33
2.76823e-32
7.11351e-33
2.50773e-33
1.55186e-33
4.25431e-33
1.87435e-32
4.6398e-33
8.69389e-34
1.68811e-33
5.65243e-17
7.28904e-17
2.45355e-17
3.27626e-17
2.57966e-17
1.53599e-17
1.31206e-17
2.07097e-17
9.44775e-18
3.89779e-18
4.68979e-18
9.94277e-18
2.55589e-18
4.66395e-18
6.33709e-18
1.70055e-28
1.44622e-27
1.71586e-28
3.95055e-28
4.51358e-26
5.30863e-27
9.30821e-27
6.54343e-26
1.20001e-28
2.25674e-28
1.48942e-27
1.31634e-26
1.36701e-26
3.16849e-25
7.03703e-26
9.43058e-26
1.33053e-24
6.9906e-27
0.499998
0.5
0.5
0.499997
0.499999
0.499999
0.5
0.499995
0.499999
0.499997
3.58392e-10
3.07756e-10
1.40312e-10
1.5583e-10
6.60685e-10
3.71379e-10
6.09112e-10
1.25963e-09
1.03006e-09
6.15929e-10
6.55365e-10
1.01435e-10
7.92615e-11
3.36784e-10
2.84027e-10
4.95344e-10
2.91279e-10
1.84899e-10
1.1232e-10
1.36824e-10
8.23223e-11
2.38362e-10
2.49387e-30
3.76597e-30
1.97085e-29
1.77446e-29
9.93768e-31
1.20595e-30
1.26179e-29
2.43225e-29
6.40361e-29
2.59057e-30
4.67908e-31
1.25688e-30
1.33217e-29
8.35371e-30
2.16076e-29
4.19249e-30
5.95384e-30
6.51872e-31
0.43579
0.430059
0.41144
0.43233
0.410201
0.395949
0.411519
0.395874
0.391189
0.381704
0.374681
0.40476
0.42844
0.407372
0.385095
0.347871
0.35601
0.336491
0.381365
2.43532e-05
1.35031e-05
5.25428e-05
2.76481e-05
2.05112e-05
1.28654e-05
7.57723e-06
3.29127e-06
3.37127e-06
1.61954e-06
1.0564e-05
7.55998e-06
3.37583e-05
1.58392e-05
1.21384e-06
1.13384e-06
3.12126e-06
5.71115e-06
0.5
0.5
0.499999
0.499999
0.5
0.5
0.5
0.5
0.5
0.5
0.5
0.5
0.5
0.5
0.5
0.5
0.0281631
0.0512311
0.0442825
0.0350827
0.0413881
0.0338223
0.035755
0.0299123
0.0437521
0.0388176
0.0299409
0.03199
0.0258067
0.117292
0.0994215
0.129495
0.14397
0.115014
0.108147
0.173655
0.147636
0.181213
0.162068
0.184193
0.153925
0.129672
0.155744
0.138543
0.0458467
0.035982
0.0376557
0.0314625
0.0511744
0.0425728
0.0384145
0.02944
0.0595695
0.0503941
0.0541716
0.0338142
0.0527064
0.0628436
0.0404054
0.0427218
0.490052
0.486911
0.487517
0.482959
0.482254
0.484258
0.475071
0.472002
0.478769
0.49084
0.494835
0.495988
0.494833
0.483743
0.481314
0.481479
0.493029
0.488868
0.48672
0.487704
1.71047e-05
8.94656e-06
1.53228e-05
1.71001e-05
1.11601e-05
7.39617e-05
1.62096e-05
4.50087e-05
8.38221e-05
0.000111097
3.73261e-05
4.03677e-05
6.17599e-05
1.85731e-05
1.28132e-05
9.08646e-05
3.05246e-05
5.38118e-06
0.000129999
3.83737e-05
0.000187673
4.90083e-05
1.01276e-05
9.00952e-05
2.40589e-05
0.000588641
9.79523e-05
0.000106832
0.000341655
0.000521218
0.000725572
0.000427751
0.000379012
0.498603
0.497611
0.497453
0.494021
0.498935
0.498403
0.494544
0.4926
0.497068
0.498239
0.484995
0.485484
0.486271
0.491261
0.495686
1.20712e-19
1.08322e-19
2.883e-19
5.9073e-19
3.82225e-19
1.52617e-19
7.1212e-20
9.32642e-20
7.70346e-20
0.470702
0.479551
0.466979
0.461675
0.479911
0.443369
0.440211
0.467752
0.436448
0.415895
0.420507
0.424855
0.440779
0.454899
0.454112
0.434392
0.442854
0.455986
0.463825
0.475476
0.448754
0.462581
0.000995057
0.000962757
0.00122567
0.000707561
0.000686128
0.000925936
0.000797839
0.000765018
0.00107133
0.000598606
0.000705564
0.000488253
0.00052437
0.000455688
0.000298811
0.000359004
0.000487234
0.00067336
0.00040053
0.00045484
0.0758239
0.0705488
0.0586861
0.0542957
0.0649604
0.0285288
0.0260416
0.0439049
0.0378157
0.063465
0.047385
0.0358208
0.0421225
0.0351235
0.0296246
0.0507359
0.0431424
0.0527878
0.0254774
0.0482997
0.0386132
0.0348929
0.0387834
0.0195699
0.0217144
0.0300145
4.64729e-12
7.26108e-12
5.22022e-12
2.7314e-12
3.93445e-11
2.37551e-11
1.10299e-11
2.03603e-11
1.15054e-11
5.59055e-11
4.04186e-11
2.2411e-12
4.06959e-12
2.54272e-12
3.13054e-12
1.97975e-11
2.90073e-12
1.42443e-12
6.6599e-12
6.61369e-12
1.40865e-11
3.06257e-11
2.19688e-11
1.07029e-11
1.139e-11
6.45454e-12
5.24864e-07
3.79745e-07
8.70187e-07
5.3012e-07
5.11833e-07
7.53631e-07
1.20989e-06
4.59068e-07
9.24184e-07
3.40576e-07
5.39829e-07
3.38394e-07
2.02667e-07
7.5184e-07
1.20482e-06
1.13743e-06
1.62704e-06
5.43841e-07
0.00468637
0.00423492
0.00318663
0.00376152
0.0035837
0.00261508
0.00260473
0.00337735
0.00395626
0.00303966
0.00229667
0.00270455
0.00310266
0.275732
0.318276
0.276068
0.266913
0.294263
0.346265
0.376722
0.340095
0.324699
0.318557
0.306019
0.333721
0.324247
9.76294e-17
5.46827e-17
6.68289e-17
5.06684e-17
3.23942e-17
4.32144e-17
2.29611e-17
1.61348e-17
1.62119e-17
7.13574e-17
2.44142e-17
2.09877e-17
4.06897e-17
4.94399e-17
2.16204e-17
3.15862e-17
2.51835e-17
1.26028e-17
2.59197e-17
1.56334e-17
8.11294e-17
5.46752e-17
3.35132e-17
5.75985e-17
1.97447e-16
1.62073e-16
8.65427e-17
1.15581e-16
8.17848e-16
1.07581e-15
1.99597e-15
1.84112e-15
3.52893e-15
2.19502e-15
6.17126e-15
3.70485e-15
1.17152e-14
5.44705e-15
8.83671e-15
4.08611e-15
3.54405e-15
4.36056e-15
9.82844e-15
9.14616e-15
1.00903e-13
9.69391e-14
5.1997e-15
6.37547e-15
4.39957e-14
4.91335e-14
1.14015e-14
1.36645e-14
1.77019e-14
3.18247e-14
6.1584e-14
8.74869e-14
2.49256e-14
3.46321e-14
1.98869e-28
4.91864e-28
5.17971e-27
3.16656e-27
1.45372e-27
8.5652e-27
2.38787e-27
2.75059e-28
1.25943e-27
3.29962e-27
5.04965e-28
0.0428277
0.0442219
0.0521265
0.0823369
0.101365
0.0643806
0.0814236
0.0639681
0.0755085
0.0843667
0.0556724
0.0571353
0.0633293
0.00105057
0.00131928
0.000902421
0.00111332
0.00110799
0.00221913
0.00143188
0.00153861
0.00218493
0.00147828
0.00298616
0.00203149
0.00239459
0.0029755
0.0019049
0.00411079
0.00249796
0.00270148
0.00279885
0.00441662
0.00187309
0.00412476
0.0465526
0.0565336
0.0447338
0.0497032
0.0632068
0.0570859
0.071456
0.0634433
0.0929836
0.0697415
0.0844921
0.0225433
0.0287619
0.0198038
0.0232763
0.0290829
0.0366645
0.0308964
0.0384282
0.0714499
0.062607
0.0371691
0.0331272
0.0449905
0.0594141
0.0522573
0.048232
0.0485108
0.0556014
0.0448848
0.499931
0.499829
0.499989
0.499831
0.499741
0.499971
0.499995
0.499924
0.499975
0.499987
0.499652
0.499975
0.499847
0.000329203
0.000434281
0.000427189
0.000337267
0.000562142
0.000620331
0.000746959
0.000784741
0.000872136
0.000484932
0.000609047
0.000347295
0.000275022
0.000483433
0.000892543
0.000281231
0.000379864
0.000229548
0.000414346
0.000330283
0.000513332
5.43515e-13
8.93554e-13
9.27711e-13
1.88753e-12
7.52677e-13
4.01808e-13
2.56056e-12
2.74973e-12
3.33945e-12
1.66445e-12
6.02502e-12
5.87537e-12
7.96359e-13
1.46517e-12
1.19781e-12
1.79848e-12
1.39119e-12
2.99147e-12
1.49217e-12
4.92676e-13
3.96392e-13
2.28782e-13
7.95495e-13
3.59034e-13
1.74116e-12
5.60648e-13
2.08148e-13
1.09108e-12
1.62096e-12
6.90558e-13
1.21046e-12
6.37057e-13
1.16566e-13
5.98104e-14
2.89052e-13
1.3162e-13
2.79242e-14
5.56118e-13
3.6215e-13
2.45348e-13
1.36054e-13
2.49142e-13
6.83548e-14
1.02273e-13
1.82286e-13
1.02078e-26
1.62089e-26
4.07926e-26
2.43177e-26
8.4738e-26
3.98598e-06
2.52772e-06
6.51801e-06
1.01015e-05
6.53648e-06
6.25892e-06
3.54277e-06
2.19689e-06
3.11716e-06
6.66907e-06
4.5727e-06
3.2645e-06
1.10812e-05
7.95762e-06
1.05971e-05
1.1827e-31
3.43849e-31
1.22168e-29
3.44495e-30
1.20764e-31
2.52096e-29
2.29833e-29
3.32134e-32
3.53909e-32
3.00465e-30
1.16123e-29
1.92406e-31
9.66557e-31
3.31321e-30
1.63984e-30
1.55276e-30
4.08397e-31
3.41263e-31
0.00189485
0.00161362
0.00125705
0.00145753
0.00066211
0.000552833
0.000763322
0.000787149
0.00142073
0.00139831
0.000527164
0.000497454
0.000313211
0.000376104
0.000944408
0.00117669
0.000899111
0.000496734
0.000434912
0.00100621
3.8583e-08
6.7602e-08
5.46384e-08
4.754e-08
9.12505e-08
7.23373e-08
2.71572e-08
2.05996e-08
3.80196e-08
9.1931e-08
5.50822e-08
9.03556e-08
5.23634e-08
4.14694e-08
5.16766e-05
7.46256e-05
1.41693e-05
1.85906e-05
6.84859e-05
4.1523e-05
3.05516e-05
4.64895e-05
6.50796e-05
2.13795e-05
2.86729e-05
2.04755e-05
3.32424e-05
2.86412e-05
4.74073e-05
2.39522e-05
5.10553e-05
3.46187e-05
5.74441e-08
9.35146e-08
4.96507e-08
1.50073e-08
2.31661e-08
2.15888e-08
2.30952e-07
6.38615e-07
6.39456e-08
1.44998e-07
5.64887e-08
6.08212e-08
9.59185e-08
9.8177e-08
1.9092e-07
3.22681e-07
5.31476e-08
7.89992e-08
1.14876e-07
1.49522e-07
1.64483e-07
2.07797e-07
0.000210686
0.000153406
0.000101289
7.51337e-05
0.000215587
0.000115786
0.000163539
0.00039923
0.000298384
0.000149579
0.000114911
0.000105715
0.000144871
0.000284615
0.000217527
7.75381e-05
0.000201873
0.000144597
7.74945e-05
0.000105942
0.0106754
0.00865265
0.0108406
0.0204678
0.00487856
0.011616
0.00750253
0.00357244
0.00506042
0.0071065
0.00572703
0.00949446
0.00939923
0.00832505
0.00699966
2.2517e-22
5.42763e-23
8.50833e-23
6.47354e-22
1.93369e-21
4.69613e-22
2.83927e-22
3.20471e-21
1.85701e-07
1.58873e-07