/*--------------------------------*- C++ -*----------------------------------*\
  =========                 |
  \\      /  F ield         | OpenFOAM: The Open Source CFD Toolbox
   \\    /   O peration     | Website:  https://openfoam.org
    \\  /    A nd           | Version:  10
     \\/     M anipulation  |
\*---------------------------------------------------------------------------*/
FoamFile
{
    format      ascii;
    class       volScalarField;
    location    "2";
    object      eff_dif;
}
// * * * * * * * * * * * * * * * * * * * * * * * * * * * * * * * * * * * * * //

dimensions      [0 2 -1 0 0 0 0];

internalField   nonuniform List<scalar> 
75457
(
-0.0461923
-0.0410449
-0.03738
-0.0337384
-0.0267057
-0.0299492
-0.0407767
-0.0416128
-0.0274407
-0.0208358
-0.0250405
-0.0279575
-0.0279475
-0.0245383
-0.00166344
-0.00216777
-0.00265337
-0.00204873
-0.00266714
-0.00253007
-0.00183067
-0.00265464
-0.00214253
-0.00242586
-0.00256153
-0.00293481
-0.00245198
0.000286131
0.000263792
0.00054818
0.000469117
0.000612802
0.000364126
0.000301274
0.000455185
0.000248918
0.000270777
0.00033986
2.6567e-05
0.000206061
7.70487e-05
0.000212686
0.000159409
-0.00925874
-0.00785043
-0.00801266
-0.00838289
-0.00901934
-0.00417962
-0.00492787
-0.0052101
-0.00467074
-0.00447091
-0.00469529
-0.00523766
-0.00527732
-0.00486252
-0.00513252
-0.00463811
-0.00480713
-0.00465303
-0.00455979
0.0262461
0.0265331
0.0262876
0.0266176
0.0268841
0.0268894
0.0265368
0.0265812
0.0268713
0.0266506
0.0263533
0.0266526
0.0266362
0.0263057
0.0265312
-0.00660183
-0.0068619
-0.00709218
-0.00689548
-0.0109365
-0.00445755
-0.00452059
-0.00909899
-0.00849812
-0.0100952
-0.00884131
-0.00110104
-0.00568352
-0.00388033
-0.00449332
-0.00732025
-0.00693478
-0.00658559
-0.00665726
-0.00667986
-0.00679611
-0.00677094
-0.00653259
-0.00719566
-0.00680013
0.0271929
0.027083
0.0273426
0.0273587
0.0272255
0.027077
0.0269974
0.0274467
0.0274488
0.0270638
0.0270744
0.0176951
0.018366
0.0208167
0.0203984
0.0177405
0.0193612
0.0193934
0.0188219
0.0192008
0.0209092
0.0206935
0.0212293
0.0217642
0.0205232
0.0199357
0.0187261
0.0211796
0.0201596
0.0101085
0.010064
0.00960663
0.0103649
0.010016
0.0113134
0.0110707
0.0109686
0.0110192
0.00531436
0.00496816
0.00540644
0.00502735
0.00458296
0.00495963
0.00497431
0.00423229
-0.00643108
-0.00637539
-0.00591084
-0.00597162
-0.00634582
-0.00607619
-0.00592329
-0.00548313
-0.00414711
-0.00433826
-0.00530614
-0.00508044
-0.00484959
-0.00524611
-0.00435792
0.0121247
0.013712
0.0139624
0.0133125
0.0137407
0.0100461
0.0114558
0.0129941
0.011975
0.0129727
0.0103388
0.00899474
0.0096163
-0.00891014
-0.0093531
-0.009163
-0.00937788
-0.00915585
-0.00927702
-0.00877837
-0.00947239
-0.00934085
-0.00952092
-0.00947273
-0.00942316
-0.0092838
-0.00933712
-0.0095581
-0.00817361
-0.01034
-0.00872327
-0.00861493
-0.0100551
0.00735576
0.00801972
0.00666553
0.00759267
0.00591209
0.00660796
0.00894656
0.00861666
0.00786731
0.00534249
0.00523171
-0.00747615
-0.00732327
-0.00754707
-0.0074748
-0.0076044
-0.0076488
-0.00732074
-0.00719576
-0.0066724
-0.00763558
-0.00743653
-0.0070927
-0.00753464
-0.00688623
0.00383562
0.00306952
0.00337315
0.00197299
0.00245052
0.00289988
0.00266868
0.00379616
0.00343515
0.00279581
0.00221401
0.00175712
0.0035798
0.00217953
-0.00652294
-0.00654926
-0.00599714
-0.00596324
-0.00628618
-0.00613393
-0.00657004
-0.0062287
-0.00666803
-0.00598335
-0.00611318
-0.00575369
-0.00626496
-0.00660212
-0.00630649
-0.00617891
-0.00624002
-0.0127567
-0.0127181
-0.012289
-0.012262
-0.0137268
-0.0121369
-0.0126401
-0.0119387
-0.0117556
-0.0128464
-0.0115393
-0.0127059
-0.00465328
-0.004663
-0.00493992
-0.00490061
-0.00413537
-0.00296633
-0.00342745
-0.00339665
-0.00296585
-0.00332891
-0.00414
-0.0039604
-0.00343027
-0.00288402
-0.00289607
-0.00295677
-0.00276293
-0.00279209
-0.00264259
-0.00259012
-0.00253234
-0.00258648
-0.00275652
-0.00290821
-0.00281717
-0.00248947
-0.0027163
-0.00268529
-0.000101161
-0.000156147
-0.000138185
-8.8274e-05
-0.000117891
0.000176184
-0.000117114
1.07313e-05
0.000119122
-7.66654e-06
0.000365712
0.00044435
0.000410714
0.000959139
0.0011893
0.000983386
0.000894098
0.000634356
0.000700995
0.000664905
-1.91662e-05
0.000280876
-0.00322894
-0.00442211
0.00292582
0.000600944
-0.000587481
-0.00331284
-0.00513232
-0.000366542
-0.00503953
-0.00588076
-0.00251836
-0.00534855
-0.00539014
-0.00533325
-0.0052632
-0.00537126
-0.00536482
-0.00536691
-0.00505429
-0.00544021
-0.00538632
-0.00539133
-0.00490429
-0.00517448
-0.00537349
-0.00517938
-0.00531911
-0.00530002
0.00263486
0.00221085
0.0018978
0.00113599
-0.00310341
-0.0017709
-0.00225324
0.00040826
0.000746705
0.0011971
-0.000766429
-0.0018645
-0.00248664
-0.00307862
-0.00300961
-0.0025355
-0.00269134
-0.00210223
-0.00274144
-0.00307524
-0.00234665
-0.00254173
-9.75863e-05
-8.26229e-05
-0.000172274
-0.00022823
-0.000116142
-0.000105336
-0.000151702
-5.76408e-05
-0.000189349
-0.00020099
-0.000266694
-0.000119925
-0.000175611
-0.000349359
-0.000323011
-0.00572764
-0.00211651
-0.00697495
-0.00523661
-0.00517757
-0.00626991
-0.00670779
-0.00653754
-0.00687329
-0.00683979
-0.00653372
-0.00718004
0.0450054
0.0497883
0.0384966
0.0411037
0.0438554
0.0458629
0.0455802
0.0484087
0.040992
0.0453483
0.0436897
0.0446586
0.0407306
0.0451329
0.0395492
0.0409586
0.0428687
0.0379835
0.029933
0.029468
0.0301735
0.0308987
0.0317643
0.0327077
0.0301584
0.0307794
0.0332037
0.0365657
0.0333568
0.0336193
0.0353028
0.0212604
0.0185636
0.0161775
0.0177833
0.0221508
0.0189334
0.0175695
0.0189858
0.0185202
0.0166878
0.0237979
0.0237919
0.0171875
0.0187215
0.0161562
0.022181
0.0242409
0.0243209
0.0204044
0.0204431
0.0209904
0.0223462
-0.00977031
-0.01023
-0.0105284
-0.0102893
-0.0103813
-0.00988054
-0.0101293
-0.0101418
-0.00996595
-0.00980326
-0.0104763
-0.0100525
-0.0103204
-0.00993487
-0.0104748
-0.0100397
-0.0379153
-0.0431543
-0.0241898
-0.0295833
-0.0227851
-0.0316496
-0.0288487
-0.0269283
-0.0225325
-0.0289599
-0.049277
-0.0431803
-0.0266351
-0.037356
-0.0242045
-0.0244173
0.000774969
0.000668914
0.000825338
0.00147141
0.00165054
0.00222393
0.000437767
0.000206833
0.00160236
0.00162163
0.00227944
0.0019439
0.00184469
0.00172624
0.00150995
0.00093576
0.000401427
0.000984471
0.0290875
0.0331678
0.0317553
0.0283127
0.0296305
0.0323907
0.0358205
0.0349218
0.0299667
0.035821
0.0375316
0.035788
0.0319869
0.0287665
0.0295601
0.0305197
0.0223381
0.0217211
0.0222269
0.021975
0.0211861
0.0229077
0.0234625
0.0228614
0.0222271
0.0231956
0.0226489
0.0218249
0.0226543
0.0211328
0.0217989
0.0233139
0.0237723
0.00873568
0.00857694
0.00831648
0.00868829
0.00873707
0.00881847
0.0088349
0.00884622
0.00886581
0.00871035
0.00842056
0.00861946
0.00900929
0.00870107
0.00884716
0.00813802
0.00812975
-0.00163151
-0.00283191
-0.00437417
-0.00361471
-0.00275307
-0.00184927
-0.00188278
-0.00162678
-0.00352686
-0.00349976
-0.00515942
-0.00461229
-0.00292555
-0.00392353
-0.00585513
-0.00356763
-0.002623
-0.00413332
-0.00169091
-0.00197985
-0.00164647
-0.00166074
-0.00118336
-0.00129819
-0.00139169
-0.00152984
-0.00114751
-0.00134434
-0.00130037
-0.00106235
-0.00090998
-0.00104555
-0.00503772
-0.00453243
-0.0064374
-0.00675489
-0.00729061
-0.00723374
-0.00551888
-0.00480117
-0.00471297
-0.00716932
-0.00698347
-0.00623567
-0.00498583
-0.00487385
-0.00513045
-0.00567337
-0.00581489
-0.00605166
0.0166443
0.0124977
0.0133779
0.0200278
0.0163688
0.0105709
0.0134954
0.0137211
0.0101653
0.0185355
0.0137419
0.0107916
-0.00794215
-0.00730668
-0.00708514
-0.00647368
-0.00656055
-0.00804958
-0.00468442
-0.00540009
-0.00800752
-0.00681958
-0.00698461
-0.00612813
-0.00590784
-0.00748647
-0.00681017
-0.00712386
-0.00325141
-0.00379397
-0.00271649
-0.00297943
-0.00416647
-0.00442075
-0.0030073
-0.0017941
-0.00238869
-0.00268634
-0.00224084
-0.00413189
-0.00404348
-0.00242392
-0.00198631
-0.00347291
0.00278849
0.00216923
0.00157487
0.00417181
0.00497332
0.00294562
0.00352131
0.000933391
0.00215891
0.00273563
0.00409539
0.00317035
0.00410312
0.00475328
0.00441348
0.0019766
0.00206369
0.0031238
0.00160132
-0.000629106
-0.00049459
-0.000606991
-0.000930745
-0.000736537
-0.000617535
-0.00115875
-0.00118672
-0.000676144
-0.00101254
-0.00079497
-0.0012876
-0.000901982
-0.000773214
0.000426555
0.000313032
4.73576e-05
0.000135057
1.23176e-05
0.000114041
-2.3924e-05
7.12405e-05
7.65276e-05
-6.69607e-05
-0.000143071
0.000129324
-1.45162e-05
-4.18228e-05
0.000142036
-6.58306e-05
2.84464e-05
-3.11642e-05
-0.00373608
-0.00513615
-0.0038414
-0.00252135
-0.00327418
-0.0067909
-0.00412614
-0.00361206
-0.00373442
-0.00415074
-0.00587354
-0.00715166
-0.00701415
-0.0089234
-0.00908495
-0.0102915
-0.0112989
-0.0100549
-0.0132044
-0.00641573
-0.00643792
-0.00998339
-0.0122449
-0.0116547
-0.0106234
-0.0119116
-0.011917
-0.0112554
-0.0086998
-0.00972275
-0.0105329
-0.00876279
-0.00972519
-0.00987328
-0.0092275
-0.00955657
-0.0091462
-0.00985852
-0.00969571
-0.00947072
-0.00921663
-0.00922085
-0.00962652
-0.00935204
-0.00961021
-0.00907202
-0.00942284
-0.00957662
-0.00915948
-0.00931045
-0.00864507
-0.0116289
-0.0154152
-0.00981988
-0.00961994
-0.0142554
-0.0156839
-0.0110175
-0.0143763
-0.0126638
-0.000209941
2.4088e-06
0.000634424
0.00231049
0.00179005
0.00208659
0.00255337
0.00364002
0.00194038
0.00125388
0.0025893
0.00144958
0.00427484
-0.00121771
-0.00107541
-0.00114954
-0.00125627
-0.00117602
-0.000940155
-0.00105948
-0.000928581
-0.0013381
-0.00131448
-0.000904307
-0.000904114
-0.00120592
-0.000754688
-0.0011889
-0.00106326
-0.000843125
-0.00105377
-0.000870804
-0.00109258
-0.00116966
-0.000855429
-0.00426147
-0.00427217
-0.00450445
-0.00433686
-0.00405223
-0.00304236
-0.00388271
-0.00338385
-0.0033647
-0.00275166
-0.00295103
-0.0031742
-0.00355838
-0.00323115
-0.00305467
-0.0036007
-0.00310148
-0.00272921
-0.00324207
-0.00279825
-0.0059699
-0.00599076
-0.00662736
-0.00671488
-0.00555549
-0.0056309
-0.00701085
-0.00657102
-0.00615142
-0.00520108
-0.00544096
-0.00536005
-0.00510825
-0.00551661
-0.00575238
-0.00609236
-0.00503372
-0.00512032
-0.00574527
-0.00623495
-0.0050676
-0.00532584
-0.00586239
-0.00733663
-0.00563619
-0.00688652
-0.00560661
-0.00714271
-0.00493703
-0.00465172
-0.00441638
-0.00529485
-0.00707225
-0.0073578
-0.00716113
-0.00552342
-0.00494655
-0.00656013
-0.00662011
-0.00379949
-0.00389461
-0.00491374
-0.00409662
-0.00480967
-0.00643958
-0.00556736
-0.00489643
-0.00464944
-0.00446533
-0.00582488
-0.00593389
-0.00743044
-0.0051669
0.0178394
0.018392
0.0193127
0.0182605
0.0190488
0.0179239
0.0189188
0.0177794
0.0182972
0.0192557
-0.00918103
-0.00910595
-0.00847984
-0.00842792
-0.00947986
-0.00922938
-0.00858861
-0.00882146
-0.00917796
-0.00835547
-0.00888227
-0.00853602
-0.00842191
-0.00920473
-0.00850544
-0.00890855
-0.00930104
-0.0123682
-0.0120472
-0.0132402
-0.0128714
-0.0127056
-0.0133243
-0.0114922
-0.0113573
-0.0115121
-0.0114158
-0.0132908
-0.0134213
-0.0109303
-0.0122518
-0.011974
-0.0121166
-0.0121752
-0.0132427
-0.0116797
-0.0119691
0.00815963
0.00855898
0.00922509
0.00871173
0.00823815
0.00939842
0.00580707
0.00740593
0.00772519
0.00729411
0.00657686
0.00879407
0.00832079
0.00878942
0.00788512
0.00745421
-0.013212
-0.0116476
-0.00802036
-0.0107167
-0.00863736
-0.00256439
-0.00960713
-0.0106638
-0.00942864
-0.00541334
-0.00473283
-0.00632568
-0.0105763
-0.0125383
-0.0134085
-0.0115768
-0.0105687
-0.010617
-0.0115338
-0.011784
-0.0123422
-0.0107476
-0.00980119
-0.0100512
-0.0107394
0.0087975
0.00797551
0.0076443
0.00768151
0.00773832
0.00650294
0.00605209
0.00556927
0.00569353
0.0061447
0.00617549
0.00540073
0.00685423
0.00616159
0.0076724
0.00780531
0.00613605
0.00697431
0.00671386
-0.00917957
-0.00917011
-0.0113274
-0.0110686
-0.011609
-0.00887548
-0.00856807
-0.0102732
-0.0100729
-0.00881615
-0.00871385
-0.0105273
-0.0102744
-0.0109965
-0.00900675
-0.00987488
-0.00908249
-0.0105657
-0.00942352
-0.00737054
-0.00987427
-0.0075505
-0.00565139
-0.0075227
-0.00863516
-0.00630515
-0.00431842
-0.00545879
-0.00816891
-0.00755211
-0.00589266
-0.0066976
-0.00544768
-0.00816905
-0.00908309
0.0169273
0.0174465
0.0166833
0.0165541
0.0175208
0.0184465
0.0184374
0.0174875
0.0173771
0.0181668
0.0184066
0.0174779
0.0184583
0.0189259
0.0196093
0.0190448
-0.00435975
-0.00353179
-0.00248845
-0.000485514
-0.00881721
-0.0104236
-0.00204602
-0.00222128
-0.00959561
-0.0105261
-0.00680239
-0.00574541
-0.00397019
-0.0108377
-0.0104582
-0.00333322
-0.00989545
-0.0078076
-0.00915144
-0.00858971
0.0536169
0.0476774
0.0433341
0.0430065
0.0520914
0.0534004
0.0469208
0.051731
0.0459106
0.0478836
0.0454696
0.0458955
0.0427363
0.0426081
0.0483038
0.0167549
0.015156
0.0204416
0.0208942
0.0187785
0.016061
0.0217088
0.0182267
0.0212507
0.0242399
0.0226947
0.0241292
0.0259989
0.023256
-0.0132682
-0.0137449
-0.0132648
-0.0139323
-0.0126189
-0.0127644
-0.0113383
-0.0103423
-0.0120776
-0.011969
-0.0105761
-0.0101966
-0.0126403
-0.0112936
-0.0107046
-0.0113322
-0.00351643
-0.00323555
-0.00321544
-0.00328649
-0.00322922
-0.00351233
-0.00334005
-0.00349645
-0.0035988
-0.00301148
-0.00306153
-0.00300919
-0.00347163
-0.00365096
-0.00302555
-0.00341583
-0.00336363
-0.00359621
-0.00343644
-0.0113661
-0.0118146
-0.0117516
-0.012043
-0.0120361
-0.0129305
-0.0113015
-0.0121748
-0.0119754
-0.0105701
-0.0110488
-0.0113472
-0.0110522
-0.0109669
-0.0127032
-0.0125641
-0.010063
-0.0105914
-0.0105087
-0.0104138
-0.00955499
-0.00968147
-0.0106308
-0.00997843
-0.00973003
0.0258203
0.0249924
0.0250395
0.0255031
0.0256786
0.0252696
0.0250454
0.0250977
0.0257854
0.0255696
0.0256466
0.0253805
0.0255107
0.0252833
0.0256141
0.0256643
0.0256515
0.0254493
0.025095
0.025743
-0.00673883
-0.00742387
-0.00675174
-0.00720786
-0.00674319
-0.00652625
-0.00658175
-0.00728418
-0.00645721
-0.0066233
-0.00679443
-0.00696815
-0.00268701
-0.00260815
-0.00232485
-0.00219202
-0.00211589
-0.00267223
-0.00269687
-0.0028487
-0.0025985
-0.00223063
-0.00222569
-0.00235916
-0.0025139
-0.00212966
-0.00221209
-0.00239207
-0.00234586
-0.00235695
-0.00190037
-0.00181592
-0.00197965
-0.00175146
-0.00183616
-0.00211944
-0.0021446
-0.00237227
-0.00237196
-0.00176925
-0.00211212
-0.00187144
-0.00236333
-0.00228863
-0.00196985
-0.00180065
-0.00242592
-0.0021749
-0.00179588
-0.00103846
-0.00102734
-0.00118726
-0.000602877
-0.000782343
-0.000662187
-0.00062889
-0.00119826
-0.000838261
-0.00105941
-0.000943431
-0.000426512
-0.000382201
-0.000670937
-0.00123824
-0.00114446
-0.00691331
-0.00620819
-0.00742219
-0.00699311
-0.00525053
-0.00507906
-0.00589679
-0.00700562
-0.00760873
-0.00966621
-0.00947657
-0.00954732
-0.00981246
-0.00972536
-0.0098085
-0.00964223
-0.00987382
-0.00979306
-0.00980605
-0.00988798
-0.00993691
-0.00212162
-0.0018972
-0.00203871
-0.00206457
-0.00202672
-0.00215548
-0.00220772
-0.00221597
-0.0022729
-0.00203193
-0.00248296
-0.00243721
-0.00243561
-0.00252132
-0.00240229
-0.00239289
0.0259036
0.0260491
0.0258805
0.0256479
0.0252564
0.0252261
0.0248882
0.0247968
0.0250726
0.0256023
-0.00508292
-0.00503816
-0.00499132
-0.00488977
-0.00514933
-0.00516195
-0.00516575
-0.0051399
-0.00550868
-0.00532441
-0.00541728
-0.00525272
-0.00535667
-0.00549047
-0.00556898
-0.00548882
-0.00546628
-0.00524385
-0.00338921
-0.00374445
-0.00340701
-0.0035175
-0.00351313
-0.00345736
-0.00366169
-0.00345152
-0.00357323
-0.00378592
-0.00355633
-0.00384837
-0.00369352
-0.00380175
-0.00344762
-0.00373491
-0.00376144
-0.00368602
0.00599572
0.00551829
0.00498334
0.00578596
0.0041349
0.00370932
0.00631162
0.0058379
0.00478166
0.00597439
0.00509678
0.00442174
0.00504611
0.00503853
0.0261864
0.0260902
0.0259614
0.025798
0.0262398
0.0258304
0.0256557
0.025689
0.0259924
0.0258088
0.0259941
0.0261151
0.025683
0.0256544
0.0255465
0.0255869
0.0259606
0.0257609
0.0259102
0.0256791
0.0437996
0.0419797
0.0341534
0.0379777
0.02861
0.0320142
0.020502
0.0341579
0.0330284
0.0307302
0.0357843
0.0290567
0.0403707
0.0449958
0.0410199
0.0488281
0.0288506
0.0403322
0.0363171
-0.0115261
-0.0128592
-0.00813532
-0.007452
-0.0100541
-0.0131803
-0.0145499
-0.0168761
-0.007785
-0.00750169
-0.0205992
-0.0179005
-0.0110702
-0.0126117
-0.0154752
-0.0101702
-0.0110166
-0.0186034
-0.0140831
-0.0147493
-0.000110655
-0.000277935
-0.000134741
-0.000198244
-0.000291694
-0.000156132
-0.000495411
4.03459e-05
-0.00038126
-0.000414544
-0.000220466
-0.000353098
-0.000302902
-9.05209e-05
-0.0003114
-0.00056285
-0.000436909
-0.000424623
-8.23214e-05
0.00308447
0.00229823
-0.0137782
-0.0160135
-0.00198625
-0.000391081
0.000148904
-0.00284403
-0.0104183
-0.00367261
-0.00690694
-0.00380664
-0.00980763
-0.00948406
-0.0123312
-0.0118326
0.027988
0.0279399
0.0278112
0.0278856
0.0281526
0.0281696
0.0280509
0.02808
0.0278948
0.0277607
0.0282688
0.0280512
0.0282114
0.0282055
0.0278363
0.0277635
0.0279284
0.0280955
0.0282226
0.0278258
-9.706e-05
-0.000194959
0.000237904
0.000547491
-0.00163074
-0.00186411
-0.00210333
-0.00280391
-0.00122718
-0.000162437
2.086e-05
-0.00184551
-0.00211762
-0.00263416
-0.00314573
-0.00314661
-0.0012345
-0.00271919
-0.00250351
-0.00162952
0.0281295
0.0280108
0.0280928
0.0281346
0.0281236
0.0281464
0.0280713
0.0281975
0.0282614
0.028272
0.0283394
0.0280485
0.0282124
0.0281881
0.0282935
0.0282774
0.028162
-0.00411916
-0.00403182
-0.00419246
-0.00441552
-0.00428539
-0.00404697
-0.00384909
-0.0042031
-0.00427799
-0.00436164
-0.00392547
-0.00363155
0.0261859
0.0260095
0.0265506
0.0265543
0.0263116
0.0262598
0.0259199
0.0261295
0.026357
0.0265144
0.0265538
0.0261903
0.0260225
0.0261389
0.0259438
0.026139
0.0259393
0.0262005
0.0262671
0.0259333
0.026172
0.0199168
0.0194991
0.0195879
0.0199808
0.0200229
0.0192514
0.0196158
0.0211628
0.0213187
0.0211178
0.0204545
0.0201368
0.0197819
0.0197177
0.0197596
0.0203953
0.0202914
0.0202914
0.00540989
0.00576866
0.00572777
0.00515329
0.00556455
0.00625949
0.00583723
0.00569197
0.00567829
0.00676946
0.00643058
0.00674112
0.00653662
0.00569647
0.00536965
0.0461013
0.0409838
0.0351136
0.0365353
0.0429262
0.0410233
0.0525249
0.0378173
0.0447078
0.0395908
0.0520995
0.0518917
0.0475978
0.040819
-0.00210785
-0.00198823
-0.00211681
-0.00234071
-0.00247598
-0.00241848
-0.00219817
-0.00233636
-0.00208029
-0.00206528
-0.0022968
-0.00241514
-0.00230014
-0.00186152
-0.00191158
-0.00205519
0.0217287
0.0196876
0.0213372
0.0195346
0.0191765
0.019552
0.019843
0.0199047
0.0207629
0.0211371
0.023617
0.0231115
0.0221163
0.0244999
0.0250723
0.0224899
0.0234886
0.0273741
0.0273311
0.0269339
0.027034
0.0271322
0.0271894
0.0274042
0.0274428
0.0268982
0.0270157
0.0273543
0.0273793
0.0273369
0.0272135
0.0271711
0.0273347
0.0271404
-0.0186418
-0.0162124
-0.0155975
-0.0206459
-0.0158322
-0.0203435
-0.027735
-0.0147877
-0.0177266
-0.0173623
-0.0166403
-0.0196351
-0.0219925
-0.0163188
-0.013767
-0.0146912
-0.0088129
-0.00857821
0.0149997
0.0147011
0.0161472
0.0158263
0.0151603
0.0140405
0.0143768
0.0157984
0.0162675
0.0159058
0.0156656
0.0159417
0.0144132
0.0141676
0.0135946
0.0152477
0.0142011
0.014748
0.0138649
0.0152317
0.0145563
0.014336
-0.000452265
-0.00135691
-0.00117623
-0.000645267
-9.62436e-05
-0.000574575
0.000334855
0.000411001
0.000365632
-0.000624886
-0.000176012
0.000314769
0.000885675
0.00108347
0.000561918
0.000577876
-0.00317645
-0.00355487
-0.00292745
-0.00304111
-0.00344614
-0.0032029
-0.00306481
-0.00338593
-0.00358218
-0.00347522
-0.00349786
-0.00291309
-0.00294587
-0.00281509
-0.00302317
-0.00298595
-0.00351318
-0.00355118
-0.00345213
-0.00320239
-0.00292274
-0.00324548
-0.00311956
-0.00324093
-0.00327488
-0.00333273
-0.00344613
-0.00355115
-0.00322993
-0.00354091
-0.00304456
-0.00329412
-0.00299521
-0.00346106
-0.00290981
-0.00301496
-0.00290952
-0.00344414
-0.00302491
-0.00298175
-0.00339989
0.0020003
0.0026521
0.00194424
-0.000697326
0.00199917
0.00539203
-0.00179761
-0.000608743
0.00509807
0.0029188
0.0064674
0.000430929
0.00413807
0.00145995
0.00265504
-0.000133022
-0.000470806
0.000208222
0.00175335
0.00349528
0.00326691
0.0056354
0.00483597
0.00351739
0.00297007
0.00336782
0.00381606
0.00516175
0.00510958
0.00424735
0.00371267
0.00301831
0.00334036
0.00338349
0.00325247
0.00401131
0.0038895
0.00465242
0.00379578
0.00320225
0.00368949
-0.00713481
-0.00684116
-0.00682503
-0.00710938
-0.00713733
-0.00717804
-0.00733951
-0.00751488
-0.00697946
-0.00751125
-0.00725877
-0.00698471
-0.00713929
-0.00699078
-0.00712428
-0.00706101
-0.00711682
-0.00318723
-0.00328219
-0.00391418
-0.00382844
-0.00355363
-0.00380691
-0.00386222
-0.00372018
-0.0032991
-0.00381243
-0.00345186
-0.00379473
-0.00352059
-0.0036162
-0.00135512
-0.00146356
-0.00159581
-0.00170398
-0.0024
-0.0025892
-0.00136983
-0.00234888
-0.00290381
-0.00340218
-0.00340431
-0.00193973
-0.00201477
-0.00291414
-0.00307605
-0.00175488
-0.00206538
1.68147e-05
1.41566e-05
-3.49642e-05
-8.05129e-09
-1.35232e-05
-2.27249e-05
-3.92735e-05
6.05905e-06
1.63614e-05
5.97068e-06
-3.65457e-05
-6.25759e-05
-0.000129553
-9.59749e-05
-3.51619e-05
-5.29021e-05
-8.79542e-05
-7.27565e-05
-7.12216e-05
-0.000133284
-6.44916e-05
-4.02612e-05
-4.6377e-05
5.9212e-05
-2.82615e-05
-6.57187e-05
9.35919e-05
-8.25344e-05
-6.24809e-05
0.000147816
4.55764e-05
-6.17992e-05
-1.62033e-06
-1.20561e-06
-0.000105363
2.18375e-05
-2.61994e-05
-6.90697e-05
3.46969e-05
-0.000103155
-0.0144511
-0.0176907
-0.0197213
-0.0209215
-0.0223614
-0.0238699
-0.015593
-0.0193895
-0.0202208
-0.0142087
-0.0157013
-0.0167639
-0.0225587
-0.021029
-0.0227442
-0.0207602
-0.0186947
-0.000360486
-0.000447411
-0.00074082
0.000254382
-0.000332138
-0.000990758
-0.00119985
0.000268226
-1.16069e-05
-0.00070135
-0.00726325
-0.00705067
-0.00718679
-0.00737144
-0.00630854
-0.00629305
-0.00743686
-0.0074522
-0.00721166
-0.00731629
-0.00661347
-0.0063073
-0.00655627
-0.00678483
-0.00684182
-0.00718103
-0.00676277
-0.00694634
-0.00519765
-0.00531682
-0.00535949
-0.00531308
-0.00522238
-0.00515982
-0.00539753
-0.00513863
-0.00471778
-0.00487405
-0.00531677
-0.00519128
-0.00504063
-0.000142468
-6.88812e-05
-0.000181973
-0.000109026
-0.000180049
-8.62894e-05
-3.89902e-05
1.43977e-06
0.000123325
4.35265e-05
-6.48698e-06
3.49168e-05
-2.60591e-06
0.000177523
-0.0062816
-0.00622501
-0.00664839
-0.0066323
-0.00611451
-0.00680209
-0.00701404
-0.00621084
-0.00612369
-0.0066378
-0.00635475
-0.00666766
-0.00669612
-0.006482
-0.00683346
-0.0233708
-0.0220613
-0.0204524
-0.0249719
-0.0245706
-0.0232972
-0.0295277
-0.0350889
-0.0276346
-0.0260174
-0.0279242
-0.033796
-0.0242919
-0.0275073
-0.0294053
-0.0268522
-0.0291485
-0.0308317
0.0270599
0.027057
0.0273105
0.0266668
0.0267798
0.0267443
0.02685
0.0266727
0.0269889
0.0269658
-0.00784131
-0.00798808
-0.00796102
-0.00816677
-0.00790372
-0.0081257
-0.00782144
-0.00793752
-0.00781073
-0.00782546
-0.00785132
-0.00796076
-0.00813593
-0.00802923
-0.00809206
-0.0078926
-0.00796489
-0.00796901
-0.00787696
-0.00805763
-0.00811991
-0.0079872
0.00235406
0.00210911
0.00246386
0.00243656
0.00193659
0.00265211
0.00210479
0.00126912
0.00212268
0.00245859
0.00149606
0.00221316
0.00215971
0.00184387
0.00181746
0.00215144
0.00227429
0.00141073
0.0287581
0.0297226
0.0309783
0.0296814
0.0282792
0.030734
0.0289191
0.0298631
0.026208
0.0280687
0.0296268
0.0268325
0.0271513
0.0259173
0.0246589
0.0277458
0.0255781
0.0244531
0.0255158
0.0343659
0.0332758
0.0310834
0.0296099
0.0345652
0.037843
0.0364678
0.0372176
0.0447304
0.0417701
0.0377676
0.0426151
0.0323623
0.03484
0.044421
0.0474557
0.039666
0.0455214
0.0279902
0.0281035
0.0281567
0.02797
0.028078
0.0279712
0.0281462
0.0280913
0.0279399
0.0280731
0.0278853
0.02792
0.0281417
0.0280781
0.0280831
0.0281437
0.0275092
0.0234092
0.0229922
0.0252793
0.0263806
0.0281997
0.0262008
0.0262879
0.0226819
0.022029
0.0265766
0.0244895
0.0260024
0.0232574
0.0252761
0.023108
0.0228458
0.0240665
0.0246146
0.0235697
0.0242028
0.0252905
0.0251461
0.0244495
0.0237444
0.0253043
0.0256908
0.0251946
0.0201971
0.0197526
0.0219742
0.0233181
0.0116668
0.0106908
0.0205877
0.0204356
0.0114131
0.0136403
0.0160501
0.0160579
0.0176917
0.0152081
0.0128934
0.010771
0.0259662
0.0251431
0.0254942
0.0260022
0.0252205
0.0265201
0.0261273
0.0253408
0.0253585
0.0281546
0.0277262
0.0274093
0.0268686
0.0257725
0.0268956
0.0263409
0.0273704
0.0267668
0.026128
0.0276525
0.00958904
0.0113052
0.00609259
0.00361661
0.00447385
0.00623977
0.0151255
0.00554558
0.00886896
0.00860214
0.00366365
0.0082461
0.00820838
0.00598495
0.00955066
0.0144992
0.0136336
0.0129071
0.0110195
0.00920876
0.0172975
0.0144097
0.0150823
0.0129277
0.0158751
0.0151953
0.0154797
0.0145047
0.0128522
0.0139873
0.0132437
0.0142286
0.0142493
0.0272213
0.0272728
0.0270674
0.0269661
0.0276417
0.0276179
0.0271584
0.0270055
0.0277955
0.0277973
0.0272216
0.0275077
0.0277722
0.0277391
0.0276312
-0.00909485
-0.00849486
-0.00941514
-0.0103852
-0.0110878
-0.00866829
-0.0086369
-0.01066
-0.0116919
0.0296523
0.0287833
0.0277844
0.0277288
0.0284488
0.0278287
0.030049
0.0275236
0.0312469
0.0298017
0.0276191
0.029439
0.0300748
0.0304776
0.0309114
0.0267302
0.0270134
0.028787
0.0309684
0.0296429
0.027224
0.0280842
0.003
0.00370986
0.00302999
0.00131646
0.00237763
0.00319698
8.48104e-05
0.00154945
0.00167206
-3.26855e-05
0.000729342
-0.000966104
-0.00040213
-0.000979402
-0.00145433
-0.0005109
0.000531589
0.0018667
-0.00194964
0.000935159
0.0259569
0.024312
0.0289619
0.0245315
0.0263724
0.0328322
0.0301397
0.0263482
0.0300506
0.0256211
0.0280396
0.0338073
0.0316177
0.0323621
0.0357852
0.0291626
0.0284947
0.0268005
0.0312565
0.0252535
0.0284298
0.0261978
0.0299895
0.0343897
0.0352834
0.0333731
-0.00296859
-0.00350174
-0.00260223
-0.00270822
-0.00341887
-0.00345674
-0.00385081
-0.00358496
-0.00323239
-0.0033922
-0.00321003
-0.00303511
-0.00255493
-0.00335919
-0.00329832
-0.00295827
-0.00285233
-0.00308229
-0.00378472
-0.00332459
-0.00346399
-0.00333421
-0.00311724
-0.00273679
-0.00309333
-0.00291624
-0.00331497
-0.00243782
-0.00291613
-0.00285466
-0.00331146
-0.00366664
-0.00349612
-0.000308207
-0.00236003
0.000649639
-0.00176753
-0.00230479
-0.000976589
-0.00302414
-0.00374042
-0.00362302
-0.00290902
-0.00267869
0.00859225
0.00807832
0.00476673
0.00667466
0.00541525
0.00349402
0.000161062
0.00496189
0.00525369
0.00266737
-0.00195182
0.00170169
0.00320558
0.0233985
0.0241877
0.024505
0.0231763
0.0248063
0.0245944
0.024983
0.0241353
0.0242735
0.0232983
0.0234553
0.0253099
0.0246973
-0.0121459
-0.0124785
-0.0138967
-0.0130712
-0.0127308
-0.0147849
-0.0165937
-0.0152959
-0.0174058
-0.0139459
-0.0138121
-0.0137175
-0.0152853
-0.0104783
-0.00825133
-0.00788587
-0.00848891
-0.0084771
-0.00975993
-0.00970925
-0.00963209
-0.00766709
-0.0078502
-0.00861882
-0.00760298
-0.00712244
-0.00693251
-0.00736311
-0.00490289
-0.00468058
-0.00438417
-0.00418246
-0.00359853
-0.00450553
-0.00404868
-0.00435486
-0.00375025
-0.00400957
-0.00350682
-0.00395978
-0.00352331
-0.00395808
-0.00333499
-0.00331563
-0.00803094
-0.0076803
-0.00759977
-0.00741672
-0.00757247
-0.00737598
-0.00744451
-0.00807118
-0.00752047
-0.00711472
-0.00784196
-0.0081014
-0.00776314
-0.00842115
-0.00140695
-0.00229418
-0.00359921
-0.000835496
-0.00386743
-0.00269092
-0.00285778
-0.00166367
-0.00124676
-0.00160393
-0.0017425
0.0209774
0.022501
0.0216226
0.0226888
0.0219692
0.0228373
0.0219857
0.0212646
0.0223527
0.0214916
0.022834
0.0207042
0.0221947
0.0304106
0.0333721
0.0356333
0.0440078
0.0417782
0.030358
0.0473004
0.0465756
0.0338016
0.0394116
0.0319965
0.0341453
0.042382
0.046265
0.0490323
0.0374101
0.0392577
0.0360627
0.0456841
0.0436382
0.0418992
0.0388779
0.031333
0.0313854
0.0312254
0.0299715
0.0297398
0.0285471
0.0289565
0.0293237
0.0287052
0.0277093
0.0277943
0.0180544
0.0174225
0.0171543
0.0167499
0.019149
0.0186492
0.0170332
0.01841
0.0175876
0.0167035
0.0159514
0.0162103
0.0178753
0.0192358
0.0194121
0.0167065
0.016208
0.0184079
0.0156752
0.0294695
0.0297547
0.029639
0.0296385
0.0303728
0.0302015
0.0299883
0.0298248
0.0298195
0.0302184
0.0309678
0.0306782
0.0311076
-0.0107622
-0.00661657
-0.00397416
-0.00761588
-0.00626376
-0.00163893
-0.00196894
-0.00192298
-0.000791789
-0.00490847
-0.00283534
-0.0110094
-0.0141563
-0.00500456
-0.00232922
-0.00828122
-0.00616121
-0.014253
-0.00939651
-0.0150682
-0.0082733
-0.00418489
-0.00370781
-0.00453516
-0.00412897
-0.00381636
-0.00418139
-0.00388188
-0.00424069
-0.00423917
-0.00461454
-0.00442786
-0.00412904
-0.00431906
-0.00458311
-0.00434159
-0.00405552
-0.00363471
-0.00466732
-0.00151723
-0.00107153
-0.00162103
-0.00061279
-0.00126452
-0.000498241
-0.00139738
-0.00174828
0.000676104
-0.00147157
-0.000400827
-0.000436659
0.000808848
0.00142279
0.00245455
0.0022203
-0.000975205
0.000219525
0.00238793
-0.000899881
0.00122452
0.00168909
0.0012668
-0.000115212
0.00173396
0.00202058
0.00239719
-0.00152649
-0.0017393
-0.00199555
-0.00212766
-0.00226734
-0.00890744
-0.0121103
-0.00710428
-0.00985808
-0.0123204
-0.00901497
-0.0114097
-0.0158009
-0.0175127
-0.019089
-0.0213409
-0.016542
-0.0164524
-0.0181987
-0.011431
0.00202874
0.00271555
0.00120883
0.00107241
0.00175197
0.00150001
0.000939538
0.00214694
0.00151036
0.00177549
0.00167548
0.00175126
0.0014414
0.00114472
0.00187075
0.00205518
0.00137916
0.00156549
0.0127114
0.0105753
0.00573108
0.013231
-0.00141703
-0.0120699
0.0127704
0.00250941
0.0120764
0.00606868
0.00668401
-0.0247706
-0.0194688
-0.0382247
-0.000290714
-0.000969742
-0.0031391
-0.0152412
-0.00686194
-0.000111086
-0.0153627
-0.0147007
-0.0150553
-0.013776
-0.0138087
-0.0130761
-0.0131805
-0.0129231
-0.0139051
-0.0136662
-0.0123314
-0.0127484
-0.0132264
-0.0126291
-0.012389
-0.0108151
-0.0105355
-0.0131829
-0.00874953
-0.0092275
-0.0108071
-0.0132241
-0.010756
-0.0097531
-0.0126565
-0.0113101
-0.00736658
-0.00794468
-0.00758325
-0.00752727
-0.00822806
-0.00829901
0.0048932
0.00476622
0.00706616
0.00447206
0.000511496
0.00535503
-0.00682959
-0.00732038
-0.00666782
-0.00792558
0.00695142
0.00829562
0.00533845
0.00550113
4.87002e-05
-0.0023867
-6.66105e-05
-0.00270717
0.00513277
0.000679912
0.00321223
0.00349618
-0.00348147
-0.004961
-0.00498661
-0.00430869
-0.00200782
-0.00174686
-0.0028023
-0.000430534
-0.000403265
-0.00323875
-0.00514451
-0.00222682
-0.00124701
-0.000259733
0.000286468
-0.00347078
-0.00140486
-0.00175385
-0.00287011
-0.00167006