/*--------------------------------*- C++ -*----------------------------------*\
  =========                 |
  \\      /  F ield         | OpenFOAM: The Open Source CFD Toolbox
   \\    /   O peration     | Website:  https://openfoam.org
    \\  /    A nd           | Version:  10
     \\/     M anipulation  |
\*---------------------------------------------------------------------------*/
FoamFile
{
    format      ascii;
    class       volScalarField;
    location    "2";
    object      k;
}
// * * * * * * * * * * * * * * * * * * * * * * * * * * * * * * * * * * * * * //

dimensions      [0 2 -2 0 0 0 0];

internalField   nonuniform List<scalar> 
75457
(
0.355287
0.173847
0.243126
0.212518
0.735938
0.844457
0.361722
0.570212
0.211897
0.193214
0.174935
0.707513
0.634125
0.327278
0.00131465
0.00131888
0.0013166
0.00131973
0.00131547
0.00130362
0.00131579
0.00131125
0.00129904
0.00132521
0.00131637
0.00132314
0.0013238
0.0013344
0.00140169
0.00133082
0.00131597
0.00140248
0.00140234
0.00131611
0.00130583
0.0013308
0.00133392
0.00149018
0.00140202
0.00136576
0.00142425
0.00135915
0.00132663
0.00141024
0.00146328
0.00130835
0.00130754
0.00134599
0.0392706
0.00738979
0.0290218
0.0504669
0.223931
0.0300239
0.00899081
0.0124633
0.126556
0.137318
0.0662426
0.287922
0.149048
0.0703146
0.4465
0.304005
0.0655557
0.324003
0.087801
0.373754
0.494663
0.912188
0.46455
0.98844
0.37408
0.0299725
0.461005
0.144578
0.154502
0.423743
0.77089
0.736769
1.0883
0.755169
0.382966
0.511874
0.263056
0.15156
0.110147
0.133962
0.530039
0.980206
0.230838
0.255141
0.714079
0.202455
0.0991819
0.0265914
0.0210156
0.026799
0.758543
0.0267082
0.0565288
0.126153
0.118531
0.00354608
0.0401195
0.0557679
0.186974
0.0406749
1.07595
0.309119
0.374415
0.782022
0.877343
0.709214
0.0412477
0.838014
1.29049
0.445951
0.448745
1.52331
0.00865226
0.069423
0.0816422
0.18563
0.437929
0.265879
0.860231
0.417354
0.84271
0.0952771
0.153329
0.184412
0.0784202
0.0789451
0.0648833
0.608033
0.118621
0.299065
0.138328
1.05343
0.00809166
0.0159432
0.0241476
0.00561485
0.00296333
0.0161432
0.0710992
0.0827967
0.948583
0.0299257
1.87232
0.334744
0.0761839
0.0270982
0.315565
0.624991
0.0400169
1.26559
0.0893083
0.179157
1.12
0.0894298
0.227891
0.00427296
0.0048512
0.00537197
0.00443518
0.00511738
0.00370623
0.00381708
0.00441211
0.00481479
0.00465383
0.00452672
0.00396111
0.00374089
0.552805
0.496407
0.515843
0.483585
0.482473
0.411942
0.412371
0.713563
1.25683
0.454443
0.286886
0.573152
0.669981
1.41246
0.191598
0.0137803
0.223872
0.531699
0.247689
1.20638
0.0147643
0.0507465
0.0275209
0.0258057
0.0126523
0.147892
0.18282
0.179064
0.0734415
0.0913346
0.256332
0.89003
0.942795
0.963854
0.716933
0.458484
0.957746
1.03607
0.36155
0.420928
1.22768
0.330432
1.25185
1.34388
1.10554
0.285848
0.253373
0.241361
0.19579
0.22163
0.913248
0.201433
0.226512
0.115963
0.0467978
0.0400277
0.602745
0.124445
0.0185932
0.0979637
0.296732
0.00969987
0.0225052
0.0405961
0.0511266
0.173443
0.387187
0.131044
0.42527
0.232563
0.0249629
0.102292
0.320915
0.729787
0.129133
0.318696
0.101082
0.21237
0.0978988
0.0677128
0.00481062
0.023202
0.0122713
0.00026761
0.00536373
0.00607993
0.0297762
0.0415429
0.292293
0.916139
0.497962
1.6581
0.840648
0.693128
1.01669
0.649447
0.127847
0.140891
0.282419
0.0805804
0.285476
0.419738
0.583423
0.311221
0.201473
0.154946
0.532418
0.38625
0.16392
0.138099
0.399876
0.0544534
0.035946
0.118426
0.111911
0.12918
0.261462
0.33739
0.782031
1.25441
0.698851
0.519767
0.458159
0.852966
0.474289
0.282449
0.443471
0.0854486
0.0810098
0.0856406
0.165538
0.153081
0.0708236
0.166248
0.0825371
0.0544757
0.094494
0.0360142
0.631222
2.52943
1.29749
0.719945
0.736741
1.20879
0.681124
1.18179
1.2908
0.987212
1.26638
0.0406305
0.0431655
0.052651
0.178144
0.118011
0.136251
0.0867107
0.230267
0.00901582
0.0740381
0.061632
0.402912
0.370477
1.13929
0.18375
0.390941
1.2128
0.0468534
0.490266
1.01285
0.251165
0.171703
0.137173
0.390217
0.143267
0.163294
0.371222
0.207847
0.00263659
0.335986
0.688578
0.890263
1.69988
0.421374
0.24284
0.949122
1.01567
1.06812
0.974677
0.0624501
0.103169
0.062445
0.140881
0.178558
0.125644
0.274663
0.0698247
0.130867
0.241631
0.81792
0.369886
0.30936
0.339575
0.309429
0.212983
0.473104
0.52717
1.04786
1.13658
0.489747
0.00145368
0.0574009
0.0471057
0.0124619
0.00856346
0.0281646
0.0016868
0.00178173
0.00145235
0.00149615
0.00181105
0.00185783
0.00163028
0.00182814
0.00185926
0.00215247
0.00160023
0.0015951
0.00166271
0.00168084
0.00151647
0.00169905
0.00162312
0.00162588
0.00144268
0.00144607
0.00140794
0.00141208
0.00141521
0.00144294
0.00144105
0.00143934
0.00144418
0.00143408
0.00143191
0.00143246
0.00144067
0.0015586
0.00156292
0.00139943
0.00141234
0.00148158
0.00143315
0.00139619
0.00139721
0.00154041
0.00153925
0.0014624
0.00148998
0.00148022
0.00145774
0.00144673
0.00139594
0.001466
0.0015603
0.00146323
0.00149588
0.0015108
0.00142692
0.00519979
0.0014708
0.00171507
0.0012678
0.00162924
0.0038104
0.00156839
0.00131351
0.00149817
0.00550267
0.00116649
0.00148997
0.00148381
0.00212906
0.00111216
0.00663313
0.702205
0.916448
0.363504
0.295791
0.0988253
0.0823363
0.147523
0.218325
0.153898
0.148309
1.4312
0.656632
0.836614
0.348823
0.136653
0.0895394
0.00167369
0.00147368
0.00330021
0.00397377
0.0031114
0.00152328
0.00079074
0.00106435
0.0014191
0.00160608
0.00162455
0.00329195
0.00279137
0.00126148
0.0226527
0.00028761
0.00048337
0.001341
0.0014605
0.00154182
0.0015608
0.00148237
0.00145387
0.00160643
0.00164585
0.00145493
0.00146162
0.0016083
0.00160379
0.00176941
0.00160054
0.00148737
0.00147758
0.00147772
0.00361074
0.00328684
0.00411656
0.00321812
0.00280306
0.00440194
0.00498568
0.00430015
0.00393286
0.00433564
0.0040017
0.00374116
0.00436446
0.00368757
0.00382581
0.00490032
0.00501721
0.0024209
0.00174886
0.00146473
0.0015465
0.0014785
0.001473
0.000886632
0.0011865
0.00147761
0.00148659
0.00215046
0.00138165
0.00145623
0.00147171
0.00192903
0.00146965
0.00103767
0.00633721
0.00982831
0.0130993
0.00218593
0.000742444
0.0134318
0.00158042
0.00490152
0.00118906
1.09402e-05
0.0140502
0.00862064
0.00745513
0.00296598
0.00372864
0.00222295
0.014288
0.0153275
0.00133403
0.00128691
0.00152452
0.00178943
0.0013276
0.00103167
0.00131929
0.00136073
0.00118091
0.000114689
0.00176368
0.00101571
0.000713782
0.00136099
0.00144779
0.00142453
0.00156207
0.00138982
0.00133894
0.00136425
0.00149671
0.00144858
0.00142865
0.00154974
0.00153133
0.00147307
0.00145005
0.00141403
0.00140274
0.00146937
0.0014009
0.00138291
0.00157955
0.00160118
0.00160715
0.00174769
0.00189479
0.00162966
0.0015345
0.00175051
0.00170453
0.00168494
0.00143037
0.00188751
0.00165058
0.00147499
0.00182026
0.00145125
0.00170104
0.00163094
0.0015883
0.00165176
0.00169584
0.00139868
0.00145442
0.00136998
0.00136396
0.00132936
0.00141145
0.00135668
0.00109339
0.00369448
0.000973145
0.00281119
0.00872887
0.00076052
0.0052128
0.00604129
0.00690479
0.00314729
0.00218006
0.000757201
0.00539518
0.00139436
0.0010022
0.00149483
0.00255763
0.000580251
0.00694771
0.00174493
0.000996858
0.011308
0.00511242
0.0026085
0.0010015
0.00134995
0.00100484
0.00116537
0.00127174
0.00108061
0.0015888
0.00987666
0.00304536
0.00369293
0.00172552
0.00135494
0.00135474
0.0013284
0.00125552
0.00126222
0.00130012
0.00135216
0.00134721
0.00131058
0.00130155
0.00129816
0.00133092
0.00132351
0.00132512
0.00134607
0.00133376
0.00133044
0.00135301
0.00132875
0.00135136
0.00132838
0.00131615
0.00132063
0.00131786
0.00131759
0.00134014
0.0013196
0.00131618
0.00131855
0.00131545
0.00131541
0.00131707
0.0117881
0.0307188
0.0365813
0.00129112
0.0047401
0.019487
0.008044
0.000958556
0.00348129
0.0392511
0.0231439
0.0231415
0.0267894
0.0314701
0.0168812
0.0515058
0.0853462
0.055837
0.10324
0.0195679
0.0172325
0.0390808
0.07899
0.0352438
0.0472191
0.0709001
0.120748
0.0674476
0.0262832
0.0218169
0.023641
0.0235833
0.00184708
0.00365739
0.0124534
0.00828703
0.00301845
0.000273253
0.00805051
0.0021004
0.0189751
0.0465917
0.105738
0.139624
0.00772431
0.0762507
0.208524
0.0638729
0.137092
0.0207982
0.0401213
0.027822
0.0878439
0.00204077
0.00786882
0.211923
0.0888574
0.00959083
0.160092
0.0135623
0.0380446
0.0235564
0.0313618
0.0563034
0.128029
0.11994
0.170931
0.133933
0.128062
0.0765116
0.0963516
0.0957144
0.134272
0.00169759
0.00194318
0.00101315
0.000892775
0.00136586
0.00125988
0.00141263
0.00145804
0.00570822
0.00122714
0.00189662
0.0020842
0.000291192
0.00133144
0.0022759
0.00127384
0.00173433
0.00153541
0.0016248
0.00304039
0.00466098
0.00151689
0.00134222
0.00132097
0.00135076
0.00135658
0.00131882
0.0013425
0.00134617
0.00134173
0.00134942
0.00132948
0.00132331
0.0013265
0.00134413
0.00134824
0.00132588
0.00134749
0.00132597
0.00132359
0.00131574
0.00133016
0.000854419
0.00422511
0.000970348
0.00143824
0.00247189
0.00348927
0.00124229
0.00103947
0.00154353
0.00137299
0.00135672
0.00212766
0.00185494
0.00330128
0.00142869
0.00142584
0.00140248
0.00265396
0.0011394
0.00131957
0.00159028
0.00117349
0.0223221
0.0555077
0.00139414
0.00128264
0.00126097
0.00221614
0.000979749
0.00139862
0.00415247
0.0152468
0.0294318
0.0206974
0.000734892
0.00130837
0.00141519
0.00360257
0.000439391
0.00138585
0.00138091
0.00134129
0.00135603
0.00134068
0.00135077
0.00134204
0.00135924
0.00135695
0.00136226
0.00135426
0.0013498
0.0013916
0.00142044
0.00140256
0.00155712
0.00164894
0.00143276
0.00151152
0.00155941
0.00167236
0.00146875
0.00150502
0.00160399
0.00273073
0.00278311
0.00259672
0.00365543
0.00166579
0.00125169
0.00356123
0.00607363
0.0017416
0.000438676
0.00338229
0.00374755
8.07907e-06
0.00217036
0.00187242
0.00433565
0.00161116
0.0221954
0.0280398
0.0265476
0.0392306
0.028091
0.0196429
0.0245108
0.0191635
0.0173821
0.0212779
0.0258644
0.0224333
0.0206284
0.0205493
0.03076
0.0199999
0.0280172
0.0203825
0.0203805
0.0192134
0.00133251
0.00181435
0.00144568
0.00138797
0.00205118
0.00540632
0.0104919
0.00223475
0.00179828
0.000805638
0.0101978
0.00902825
0.00148785
0.00315309
0.00472613
0.0132104
0.368561
0.333025
0.280821
0.283014
0.102398
0.142599
0.116031
0.267668
0.295636
0.255445
0.0712091
0.146153
0.263757
0.00144365
0.00149807
0.00145866
0.00137772
0.00138829
0.00139907
0.00148384
0.00141167
0.00141429
0.00138966
0.00136934
0.00139496
0.00282918
0.00800855
0.000900965
0.00222973
0.00700273
0.00455109
0.00158105
0.00153768
0.0015682
0.00167651
0.00128669
0.00128532
0.0011405
0.00110752
0.00105573
0.00230952
0.0040344
0.00130855
0.00219315
0.00359207
0.00281453
0.00594804
0.00744353
0.00784348
0.00117286
0.00155525
0.00451256
0.00437679
0.00141769
0.0014047
0.00279777
0.000888429
0.00303196
0.00144797
0.00146322
0.00165614
0.0027595
0.00144456
0.0628276
0.0704442
0.0399435
0.04117
0.0511795
0.0599148
0.0247781
0.019857
0.0269087
0.032287
0.0354983
0.0244763
0.0460085
0.0252057
0.0564066
0.0377535
0.0219928
0.0624102
0.0428611
0.0175258
0.000923468
0.00468616
0.000940046
0.000373334
0.00154365
0.00164918
0.0398501
0.0210719
0.00256614
0.00855498
0.00445284
0.00340564
0.75105
0.42432
0.570515
0.464109
0.583606
0.245979
0.00268662
0.00383039
0.0251198
0.0640863
0.024207
0.0166299
0.120839
0.296631
0.553895
0.281063
0.422646
0.43155
0.0188816
0.181257
0.0115944
0.00913234
0.00736895
0.00616214
0.00678049
0.00596934
0.00768553
0.00633318
0.00455707
0.0156172
0.0174675
0.00941957
0.00908035
0.0052652
0.0154151
0.00264976
0.00348206
0.00427927
0.00335243
0.00957276
0.00967238
0.0358598
0.000525151
0.0309364
0.0267728
0.0257051
0.0317828
0.0265381
0.0477762
0.00203167
0.00259947
0.00179079
0.00181768
0.00177926
0.00214104
0.00156021
0.0014329
0.00218488
0.00166786
0.00169736
0.00143374
0.00157937
0.00149264
0.00141102
0.00143467
0.00177806
0.00187816
0.00189456
0.00206836
0.00648453
0.00787187
0.000226197
0.00532685
0.00450185
0.00107796
0.00648711
0.0139793
0.028783
0.00784806
0.00688984
0.00934778
0.0116145
0.0362846
0.0341238
0.00159102
0.00425581
0.00307101
0.00193709
0.00152209
0.00517242
0.00262559
0.00446989
0.00483394
0.00492405
0.0016004
0.00160779
0.00177002
0.00139374
0.00407654
0.00390647
0.00158034
0.00122542
0.00124487
0.00119278
0.000640151
0.00167137
0.0011812
0.0014854
0.00248043
0.0157977
0.0120574
0.0113002
0.0737186
0.00510908
0.00636747
0.0233537
0.0223918
0.0104427
0.00976144
0.0234545
0.0245123
0.0136832
0.0240991
0.00913268
0.00743159
0.00732865
0.00766129
0.0278999
0.00834204
0.00171526
0.00165675
0.00157929
0.00154804
0.00160316
0.00254322
0.00121267
0.00162566
0.00112906
0.00140642
0.00109828
0.00134022
0.0733956
0.287867
0.935705
0.1417
0.507032
0.0133774
0.0932265
0.288132
0.79697
0.0239735
0.201479
0.339696
0.816336
0.0411848
0.158248
0.00804501
0.0512938
0.00665167
0.0668689
0.341623
0.474065
0.267389
0.0398318
0.0586938
0.0521066
0.659117
0.656185
0.698013
0.814864
0.0488761
0.06262
0.0528631
0.043295
0.0447113
0.0998096
0.121936
0.0575163
0.00147228
0.0021159
0.00143721
0.00150399
0.00154202
0.00133077
0.00132591
0.00142688
0.00133325
0.00130131
0.00134416
0.00141645
0.00141837
0.00146266
0.00129348
0.00143806
0.0427292
0.00956697
0.104252
0.0557082
0.561949
0.451924
0.0469596
0.348157
0.514081
0.402988
0.381498
0.436581
0.0600981
0.40218
0.730995
0.456529
0.621656
0.0522753
0.0175034
0.362018
0.00714045
0.147538
0.267886
0.015495
0.0763242
0.00340507
0.186005
0.396787
0.126021
0.0010973
0.0159016
0.0202385
0.443419
0.0184651
0.0389313
0.0691159
0.186029
0.274225
0.402246
0.422326
0.959961
0.203384
0.273948
1.179
0.270284
0.637995
0.311601
0.409801
0.633458
0.0353887
0.0163445
0.193203
0.223217
0.0291725
0.0152576
0.339454
0.0119643
0.118159
0.27081
0.121427
0.0138285
0.0151708
0.183609
0.0947242
0.0189394
0.00730015
0.0126485
0.00612753
0.00155249
0.00386581
0.00272187
0.00451197
0.00540968
0.000965157
0.00143185
0.00147056
0.00803616
0.0114543
0.00272175
0.0058991
0.000983527
0.00236374
0.00239546
0.00383874
0.003674
0.00197658
0.00203926
0.00255141
0.00253336
0.00621732
0.0100813
0.000820617
0.00426495
0.00362506
0.0429723
0.12218
0.016072
0.0107357
0.0104189
0.0100438
0.0103714
0.0111695
0.00926196
0.0325589
0.0390533
0.0608921
0.0315054
0.00157346
0.0129192
0.0140674
0.00838322
0.0273736
0.0263871
0.0780159
0.0305372
0.00656427
0.00736043
0.0186659
0.027169
0.0188832
0.0205661
0.0318401
0.020643
0.0668901
0.0676191
0.0200834
0.0171375
0.0208997
0.0439503
0.0284061
0.0325561
0.0331007
0.0318061
0.042397
0.0270467
0.0284022
0.010781
0.00452625
0.00867418
0.00118328
0.113551
0.182628
0.0665034
0.0919515
0.00317874
0.000430748
0.102761
0.0508657
0.00333959
0.0410502
0.201516
0.0495728
0.00876255
0.0908048
0.0156123
0.103853
0.00116529
0.000510995
0.00764898
0.000413582
0.006176
0.229938
0.35842
0.0656828
0.0331265
0.0302206
0.0314276
0.00282218
0.0288016
0.0280884
0.0996323
0.00471494
0.00121563
0.000413456
0.0246161
0.0550959
0.0344507
0.0358617
0.0346543
0.026253
0.0258496
0.00984721
0.013755
0.00884573
0.00501544
0.0217962
0.154407
0.0970046
0.0123674
0.0375479
0.0577416
0.023533
0.0222506
0.0247531
0.0299125
0.0303884
0.0269067
0.0503633
0.0418806
0.0448354
0.0276906
0.0314442
0.0300562
0.0454806
0.0351484
0.0357949
0.0345143
0.0417259
0.0391465
0.0394234
0.0304056
0.494903
0.615786
0.210304
0.625028
0.17877
0.207117
0.0291318
0.102832
0.710027
0.224069
0.72863
0.543869
0.046564
0.039104
0.742727
0.466654
0.718452
0.301523
0.989773
0.124901
0.0219368
0.0445889
0.0551444
0.0549553
0.0372834
0.0281701
0.0250157
0.0391219
0.049027
0.0417574
0.0426034
0.0380356
0.065849
0.0316437
0.084049
0.0765713
0.0784691
0.09251
0.521462
0.386748
1.31958
0.150221
0.198833
0.319365
0.401023
1.91842
0.36556
0.0113357
0.84681
0.0120062
0.0105462
0.00905116
0.00412664
0.0114807
0.00841543
0.00774619
0.0052322
0.0049939
0.0136279
0.00887275
0.00482736
0.0571233
0.000243346
0.0196405
0.000992787
0.0312387
0.0978086
0.00107084
0.0562219
0.0803861
0.0642272
0.0491167
0.0046146
0.00761822
0.113947
0.0528213
0.106274
0.00765089
0.00689172
0.0175182
0.00436177
0.00710014
0.00532746
0.00339739
0.0308345
0.00644466
0.0119957
0.00404371
0.0101196
0.102628
0.0276159
0.00508792
0.0398014
0.232121
0.00576964
0.00189929
0.0802612
0.308894
0.0060597
0.0175906
0.0174138
0.046045
0.0145748
0.0721803
0.121742
0.112859
0.0409961
0.0448298
0.189815
0.0814927
0.108634
0.0261246
0.00309998
0.0770605
0.0346374
0.0308232
0.00603888
0.00139788
0.00205321
0.00275679
0.00426092
0.00115898
0.00131434
0.00108419
0.00114139
0.006426
0.00916869
0.00157349
0.00120492
0.00134634
0.00290264
0.00562324
0.00492362
0.013162
0.00144843
0.00616648
0.121895
0.0698352
0.495336
0.349987
0.124316
0.466043
0.324018
0.219714
0.105263
0.00846345
0.00156248
0.0204568
0.0444709
0.00222765
0.0209675
0.0213851
0.00743621
0.0268988
0.0188595
0.020474
0.0246476
0.0248878
0.0106167
0.0110175
0.0227689
0.0274787
0.0257668
0.0207341
0.017679
0.0261223
0.020072
0.0159173
0.00610051
0.00605766
0.00595512
0.00397399
0.33024
0.699249
0.00521499
0.0569382
0.223454
0.0100891
0.0266018
0.0584147
0.00520897
0.0245936
0.0185532
0.00430231
0.0206406
0.211846
0.219905
0.0488159
0.0207282
0.00050476
0.199682
0.147495
0.029963
0.0142677
0.0162751
0.0113087
0.00572716
0.0248519
0.0123926
0.00851611
0.0101607
0.00517923
0.00590463
0.0195234
0.022185
0.00633413
0.00293481
0.0013312
0.00151371
0.00149122
0.00200193
0.00197871
0.00146722
0.00142912
0.00147234
0.00247823
0.00165812
0.00200956
0.00187977
0.00281087
0.00215341
0.00158179
0.0015183
0.120478
0.0564825
0.0838844
0.13594
0.10876
0.0878302
0.295053
0.101992
0.192978
0.142515
0.578512
0.341065
0.091854
0.443261
0.0890811
0.133458
0.337471
0.917662
1.06614
0.416389
1.01738
1.21366
0.331347
0.475792
0.350626
0.192038
0.0381921
0.0238791
0.386631
0.225263
0.260666
0.00160959
0.0175275
0.253457
0.000914724
0.184566
0.169334
0.0168104
0.00996259
0.0014244
0.135911
0.00671706
0.00621093
0.0067352
0.00670743
0.0126744
0.015133
0.00905716
0.00798401
0.0010263
0.00567027
0.00134149
0.159589
0.164844
0.152855
0.15087
0.0288245
0.0327063
0.0434796
0.162924
0.0946049
0.0655665
0.0690377
0.103498
0.0252826
0.0260346
0.0299469
0.120862
0.122389
0.234848
0.268567
0.201658
0.00997646
0.0657709
0.0696126
0.337839
0.604457
0.173103
0.0725091
0.0759958
0.085975
0.571071
0.26541
0.205775
0.113245
0.0472383
0.252454
0.262896
0.0493745
0.0442258
0.0235933
0.159438
0.11597
0.250468
0.396931
0.0722821
0.123442
0.156467
0.0144907
0.254013
0.26113
0.114803
0.118231
0.52724
0.40579
0.445682
0.681316
0.13607
0.441348
0.0943752
0.0988399
0.179491
0.0963777
0.0176336
0.00746451
0.00445858
0.00942732
0.000831718
0.0146043
0.00348947
0.0788831
0.00240103
0.00214476
0.00775828
0.0140797
0.00143765
0.00176899
0.00105468
0.00300147
0.00134289
0.00135261
0.00132115
0.00142259
0.00108168
0.000828584
0.00121342
0.00136711
0.00132534
0.00134996
0.00138683
0.00138485
0.000529331
0.0013804
0.00121095
0.00100661
0.000876097
0.00140541
9.02286e-06
0.00151398
0.00484228
0.00271508
0.000778453
0.00141592
0.0013719
0.00136012
0.00135344
0.00134385
0.00130796
0.00131293
0.00134628
0.00137032
0.00131781
0.00129
0.00132567
0.00137127
0.00128651
0.00129227
0.00130807
0.00131967
0.00132305
0.0756734
0.0973899
0.020953
0.0199954
0.0160761
0.012418
0.273595
0.216764
0.092574
0.200583
0.105034
0.0120197
0.0577826
0.057854
0.467044
0.263508
0.351964
0.00840894
0.00124001
0.00680058
0.271357
0.143326
0.00124109
0.0113487
0.0113089
0.0095652
0.0737642
0.0237832
0.0578276
0.00133794
0.00227379
0.0552279
0.0854066
0.00112863
0.00194672
0.00192993
0.00159198
0.00264763
0.00238145
0.000218917
0.112279
0.0831426
0.00467747
0.00026819
0.0167147
0.0540792
0.149456
0.0515236
0.0587999
0.0881399
0.134934
0.466742
0.603493
0.185855
0.446095
0.0359064
0.0855379
0.0386636
0.00130308
0.00129182
0.00138659
0.00116382
0.00129886
0.00140803
0.00143183
0.00127484
0.00137305
0.00139553
0.00138037
0.00136236
0.00131225
0.00136431
0.00306634
0.00366589
0.00197283
0.00273089
0.0121763
0.00183015
0.00210476
0.0114628
0.0295394
0.0112663
0.0248619
0.00632495
0.0050424
0.0110461
0.00052817
0.0133
0.0198679
0.0140701
0.023968
0.0675414
0.0411721
0.0528564
0.0736796
0.0208435
0.0229091
0.0496641
0.0546811
0.0163081
0.108379
0.0807576
0.0448554
0.0884099
0.0656373
0.0294318
0.0410675
0.0248963
0.024276
0.027332
0.0239122
0.0282322
0.02224
0.0220756
0.0174698
0.138913
0.155736
0.113997
0.205481
0.0241293
0.0140729
0.00559194
0.0329032
0.0548463
0.0748866
0.180537
0.142445
0.119641
0.00983521
0.0127098
0.00517349
0.111693
0.102617
0.0196467
0.0106167
0.00896363
0.0227138
0.0368929
0.151025
0.0225635
0.0472991
0.179222
0.594713
0.116217
0.00763406
0.0316396
0.476199
0.304038
0.547369
0.145104
0.00115113
0.00334519
0.131532
0.138734
0.0978323
0.00698538
0.00685236
0.00645221
0.00697085
0.00663393
0.00622
0.00675614
0.00659973
0.00613747
0.00659727
0.0062398
0.00654012
0.00673608
0.00650114
0.00616377
0.00575975
0.00608501
0.00567015
0.00628552
0.0223471
0.0181451
0.00688467
0.00756942
0.141261
0.10222
0.0215182
0.0486869
0.0380858
0.0886927
0.0188629
0.0145966
0.0278498
0.0234499
0.039441
0.0385352
0.010285
0.0289152
0.0277384
0.0289379
0.0242782
0.0220651
0.0370035
0.0310502
0.0358754
0.0302529
0.0280135
0.0471952
0.0354757
0.0368805
0.0370083
0.0444477
0.0597946
0.0571491
0.00152243
0.00165301
0.00161118
0.00149693
0.00154111
0.00149619
0.00151872
0.00149754
0.00154501
0.00152525
0.00146142
0.00148156
0.00147442
0.00268028
0.00228885
0.00293048
0.00293996
0.00269311
0.00212173
0.00365559
0.00300096
0.00354683
0.00296806
0.00336458
0.00356705
0.00257679
0.00296737
0.002708
0.00173091
0.00188407
0.00157881
0.0017308
0.00191986
0.000917433
0.00159394
0.00163856
0.0019141
0.00182831
0.00190035
0.00149094
0.00177945
0.00180782
0.00181572
0.00166739
0.00880882
0.00882028
0.00860354
0.00800649
0.00815519
0.0084846
0.00785598
0.00785925
0.00818211
0.00834238
0.0100161
0.00984143
0.00833953
0.00804239
0.0082255
0.00821339
0.00971887
0.00858303
0.00879353
0.00868165
0.122739
0.108453
0.0929781
0.0706648
0.100766
0.100925
0.152731
0.0983708
0.165479
0.0782902
0.0670323
0.194971
0.124472
0.120116
0.166015
0.22447
0.226463
0.156604
0.235423
0.269274
0.2079
0.246573
0.233777
0.358034
0.244304
0.266357
0.341545
0.422126
0.17109
0.171224
0.199192
0.441352
0.245319
0.0116696
0.010877
0.0108768
0.00913057
0.0124182
0.0109849
0.00977555
0.00944565
0.0103088
0.0110355
0.00884798
0.00868413
0.00850684
0.00929118
0.0097597
0.00250844
0.00205481
0.0020071
0.00217492
0.00411349
0.0033927
0.00374502
0.00520874
0.0038324
0.00806705
0.00845278
0.00741385
0.00743045
0.00808086
0.00734296
0.00734628
0.0077224
0.00688909
0.00684581
0.00687244
0.00677821
0.00703141
0.00776468
0.00725546
0.00696863
0.00723407
0.00735961
0.00761292
0.0080878
0.00690184
0.00742186
0.00139564
0.00128829
0.00134832
0.00138797
0.00128555
0.00136565
0.00139991
0.00109768
0.001429
0.00132181
0.00151784
0.00140921
0.00144564
0.00142499
0.00130585
0.00132085
0.00123542
0.000949421
0.00143553
0.0016531
0.00184344
0.00166321
0.00165055
0.0015773
0.00184173
0.00163487
0.00170215
0.00178658
0.00166594
0.00168665
0.00157865
0.00148642
0.00152401
0.00156648
0.00153502
0.00168338
0.00164495
0.00178496
0.00157691
0.0016819
0.00156634
0.00175026
0.00148794
0.00153425
0.0015473
0.00148558
0.00138555
0.00140336
0.00140743
0.00138127
0.00139255
0.00138025
0.00137596
0.00137175
0.00142983
0.00137387
0.00144737
0.00136858
0.00136797
0.00132758
0.00137528
0.00142292
0.00140401
0.00137554
0.00131062
0.001351
0.00131059
0.0013797
0.00139966
0.00140489
0.0013519
0.00140482
0.00126063
0.00128156
0.00122966
0.00138622
0.00145056
0.00141785
0.00141646
0.00157911
0.00126733
0.00201408
0.000629962
0.00152553
0.0016927
0.00149333
0.00161418
0.00143078
0.00142446
0.00157206
0.00145021
0.00147189
0.00184886
0.00146244
0.00139302
0.0019819
0.00161116
0.00143307
0.00142405
0.00153971
0.001921
0.00146533
0.00137848
0.0051969
0.00610258
0.0053979
0.00468249
0.00532461
0.00593095
0.00656347
0.00565442
0.0055812
0.0052709
0.00550013
0.00601719
0.0055043
0.00146776
0.00146388
0.00162584
0.00153464
0.00145343
0.00152461
0.00169727
0.00170158
0.00163141
0.00162507
0.0016601
0.00155325
0.00164328
0.00136615
0.00132778
0.00133456
0.00134395
0.00135122
0.00138367
0.00137129
0.00139409
0.00133792
0.00132541
0.0013516
0.00133783
0.00130466
0.00132121
0.00134116
0.0012807
0.00125323
0.00115767
0.00130224
0.00148334
0.00129579
0.00123781
0.0017321
0.00179163
0.00245258
0.00155247
0.00165357
0.00129614
0.00130257
0.00172902
0.00133284
0.00119303
0.0020191
0.00123243
0.00184118
0.000993559
0.00337683
0.00123422
0.00120759
0.00107852
0.00269037
0.00119179
0.00116284
0.00121148
0.0012754
0.0060793
0.00904214
0.0075536
0.0054583
0.00646839
0.00740783
0.0124942
0.00783683
0.00509817
0.00641912
0.011014
0.0015217
0.00149173
0.00161462
0.00191379
0.00230674
0.00167086
0.0019705
0.0017409
0.00197155
0.0020375
0.00164031
0.00165751
0.00175115
0.00230087
0.00303696
0.00134899
0.0060187
0.00287305
0.00271937
0.00289072
0.00320007
0.00293726
0.00292053
0.00194795
0.00240891
0.00269129
0.00221582
0.00385777
0.00179374
0.00213436
0.00240916
0.00299037
0.00204099
0.00224623
0.00217459
0.00157835
0.00168609
0.0016549
0.00138373
0.0017182
0.0015233
0.00179123
0.00219284
0.00205477
0.00166211
0.00200638
0.00141603
0.0014152
0.00137749
0.00139869
0.00144167
0.00146074
0.00145743
0.00150797
0.0017716
0.00179939
0.00149673
0.00146942
0.00151406
0.00164654
0.00158231
0.00152907
0.00161275
0.00162258
0.00157369
0.0158842
0.0146032
0.0185499
0.0129928
0.013266
0.0171628
0.0186872
0.0151615
0.017368
0.0161024
0.0132552
0.0174596
0.014229
0.00238865
0.00111569
0.00159321
0.0014914
0.00166439
0.0015306
0.00145038
0.00165597
0.00160353
0.00155372
0.00155055
0.0022416
0.00328829
0.00151633
0.001648
0.00140826
0.00203057
0.000753789
0.00298884
0.00501355
0.00157489
0.00133529
0.00136789
0.00133603
0.0013416
0.00144364
0.00138214
0.00141009
0.00137999
0.00140267
0.000762903
0.00142144
0.00156882
0.00107884
0.00109563
0.00104683
0.0015193
0.00145889
0.00136046
0.00209935
0.00218494
0.00194383
0.00193672
0.00208264
0.0021125
0.00162273
0.0015794
0.00192709
0.0015952
0.00157961
0.00226216
0.001613
0.00152073
0.00148479
0.00147985
0.0015297
0.00177113
0.00168128
0.00151797
0.00177817
0.00149129
0.00148723
0.00151871
0.00172459
0.00169953
0.00173897
0.00103647
0.0013042
0.00126768
0.000908148
0.00135376
0.00812935
0.00218393
0.00477461
0.00427476
0.00981628
0.00166931
0.00237131
0.0384861
0.0394276
0.0241829
0.0670054
0.0661647
0.0200442
0.0405996
0.000570541
0.0307442
0.0275162
0.0294049
0.0279781
0.0105155
0.00247483
0.00119757
0.0202541
0.0105923
0.00135434
0.00188516
0.0167951
0.0232374
0.00241093
0.00138242
0.000396955
0.00240318
0.00345383
0.038057
0.0454658
0.0872475
0.0829514
0.0846815
0.089261
0.135984
0.127072
0.0513876
0.0489001
0.12928
0.121061
0.0922811
0.0889906
0.165838
0.058089
0.0762784
0.117036
0.147455
0.0741293
0.0215733
0.0396833
0.00673054
0.00889766
0.0136494
0.00920266
0.00326526
0.0200266
0.0541785
0.0619715
0.00815717
0.034467
0.0500416
0.0301738
0.00215371
0.00186246
0.002942
0.00292045
0.0015786
0.00138065
0.00163253
0.00154247
0.00432351
0.00402573
0.00743168
0.00113631
0.00142156
0.00141697
0.00151012
0.00181438
0.00272355
0.00238781
0.0164755
0.0636
0.0627463
0.205254
0.316465
0.0875142
0.144401
0.00482715
0.325326
0.296864
0.0556067
0.0667005
0.0564402
0.0777001
0.0676063
0.00174521
0.275544
0.220244
0.0143252
0.0972777
0.00948774
0.00838127
0.00117057
0.000900281
0.00193745
0.00167719
0.00141101
0.00140446
0.00139584
0.00135959
0.00137226
0.00144036
0.0010553
0.00136734
0.00136545
0.00136397
0.00134497
0.00122899
0.00136462
0.00138902
0.00141104
0.00136625
0.00113097
0.00309771
0.0125116
0.00231916
0.00129948
0.0019568
0.0128244
0.000898749
0.000323411
0.00196452
0.00146228
0.00638665
0.00196655
0.00110043
0.00552135
0.127054
0.204773
0.137042
0.275657
0.279367
0.23473
0.158143
0.125971
0.00149137
0.0014393
0.00129342
0.00152544
0.00151944
0.00156733
0.0015678
0.00131307
0.00135593
0.00155598
0.00136644
0.00142598
0.00669228
0.0126474
0.085713
0.0238677
0.00272576
0.0130738
0.128212
0.103752
0.161893
0.161587
0.299682
0.0604224
0.178593
0.386892
0.0729672
0.0132753
0.0166004
0.0209833
0.00131108
0.00134824
0.00134751
0.00134945
0.00135333
0.00130637
0.00132147
0.00133623
0.00135135
0.00135174
0.00135858
0.00132357
0.00133274
0.00128463
0.00132336
0.00138008
0.00134825
0.00132011
0.00131155
0.0013181
0.00134044
0.00131744
0.00138129
0.00137379
0.00130799
0.00133075
0.00133799
0.00145577
0.00132024
0.00127885
0.00179507
0.00133308
0.00131554
0.00134373
0.00138955
0.00131455
0.00130519
0.00147622
0.0013152
0.00131701
0.0145472
0.0131862
0.015115
0.0177496
0.0139148
0.0167807
0.0146711
0.0130816
0.0156709
0.0174722
0.0172646
0.015795
0.0155453
0.0144257
0.0157556
0.014024
0.0609288
0.0556213
0.0178012
0.0237872
0.0475667
0.0487961
0.0312394
0.0178334
0.0185359
0.0201931
0.0146602
0.0150558
0.0508399
0.0186146
0.0187728
0.0195064
0.0456704
0.0290583
0.00143493
0.00141751
0.00140127
0.00138756
0.00140497
0.00145969
0.00131071
0.00134564
0.00158613
0.00145101
0.00140495
0.0013917
0.00141331
0.00121782
0.00166011
0.00137274
0.00140538
0.00133306
0.00134323
0.001339
0.00136008
0.00132133
0.00133302
0.00130226
0.00131305
0.00131595
0.00124361
0.00144187
0.00150619
0.0014346
0.0013389
0.00128
0.00123451
0.00133939
0.00138991
0.00142279
0.0966265
0.0886782
0.0770323
0.0426353
0.00308083
0.0439122
0.00305444
0.0234879
0.063695
0.10657
0.00165247
0.00933559
0.0314436
0.0302067
0.00745076
0.0114957
0.00180002
0.00185572
0.00240533
0.00208321
0.00152677
0.00191881
0.00151341
0.00174605
0.00148201
0.00140855
0.00143928
0.00145878
0.0146718
0.00874783
0.00113689
0.00947823
0.0130236
0.00134997
0.00235813
0.0139562
0.00909093
0.0073168
0.00104758
0.00162359
0.00613566
0.00663513
0.00266164
0.00238859
0.00489289
0.0012841
0.00156378
0.00141648
0.00140865
0.00139018
0.00141244
0.00140027
0.00107883
0.00155169
0.000556982
0.0013348
0.00137097
0.00120701
0.00138765
0.00145003
0.000857377
0.00168116
0.00132404
0.00514659
0.00649382
0.0029529
0.00146415
0.0119246
0.0070491
0.00324348
0.00376926
0.00896086
0.000885638
0.00108404
0.00101944
0.0011711