/*--------------------------------*- C++ -*----------------------------------*\
  =========                 |
  \\      /  F ield         | OpenFOAM: The Open Source CFD Toolbox
   \\    /   O peration     | Website:  https://openfoam.org
    \\  /    A nd           | Version:  10
     \\/     M anipulation  |
\*---------------------------------------------------------------------------*/
FoamFile
{
    format      ascii;
    class       volScalarField;
    location    "2";
    object      nut;
}
// * * * * * * * * * * * * * * * * * * * * * * * * * * * * * * * * * * * * * //

dimensions      [0 2 -1 0 0 0 0];

internalField   nonuniform List<scalar> 
75457
(
0.012971
0.00645907
0.0104071
0.010242
0.0290156
0.0127517
0.0192093
0.00745414
0.0126743
0.0117755
0.0113332
0.0236692
0.0317972
0.0175221
0.000347517
0.000348586
0.000347968
0.000348804
0.000347807
0.000344627
0.000347819
0.000346855
0.000343336
0.00035031
0.000348047
0.000349571
0.000349787
0.000350257
0.000368165
0.000349503
0.000347231
0.000367905
0.000367325
0.000346631
0.000344584
0.000350227
0.000351777
0.000388078
0.000367051
0.000360687
0.000375952
0.000358966
0.000349938
0.000362254
0.000370103
0.000343527
0.000344488
0.000350277
0.0108247
0.00195125
0.0076776
0.0139322
0.0363224
0.0080463
0.00238119
0.00329991
0.0353967
0.0324493
0.0165191
0.00357045
0.0267617
0.0192725
0.051326
0.0424259
0.00924668
0.0404758
0.0132106
0.0453758
0.058297
0.0116385
0.0568083
0.0126392
0.0484158
0.00387174
0.0576589
0.0200351
0.020294
0.0250445
0.0458651
0.0468203
0.0499473
0.0431607
0.0247776
0.0336473
0.0184472
0.00971219
0.00802344
0.00896136
0.0300624
0.0502029
0.0164573
0.0172645
0.0456373
0.0183175
0.0357232
0.00686569
0.00546491
0.00735154
0.00671384
0.00985126
0.0150745
0.0386101
0.00535472
0.000177233
0.00101259
0.0013567
0.00897632
0.00217561
0.0101512
0.0427075
0.0664693
0.00813705
0.00827891
0.05358
0.0079822
0.0848034
0.011673
0.0484895
0.0524409
0.0134978
0.00146292
0.010547
0.0124833
0.029441
0.057342
0.0352902
0.00769516
0.0658396
0.073961
0.0132749
0.0223184
0.0523745
0.0158803
0.0233632
0.0377855
0.0504392
0.0236128
0.092699
0.048615
0.0079747
0.0020829
0.00413403
0.00641011
0.00149403
0.000800192
0.004695
0.0168921
0.0170033
0.0556123
0.0101872
0.01195
0.053199
0.01924
0.00817807
0.0435616
0.0477164
0.0053338
0.00807389
0.0221831
0.0467568
0.00713075
0.021083
0.0538492
0.00077981
0.000831679
0.000852563
0.000788216
0.000837
0.000720567
0.000727936
0.00078621
0.00083637
0.000823576
0.000802093
0.000753397
0.000726603
0.0768931
0.0763907
0.0842281
0.0718729
0.219146
0.002624
0.147004
0.0643957
0.00804508
0.0909775
0.11974
0.0705611
0.0565307
0.00907428
0.0398421
0.00211586
0.0319104
0.0478459
0.0338294
0.0105485
0.00402274
0.0137818
0.00796796
0.006893
0.00348024
0.030377
0.0405528
0.00189725
0.0198407
0.0219911
0.0358236
0.104174
0.0925016
0.0938864
0.0842042
0.0740878
0.0083005
0.00842272
0.0754879
0.0543438
0.0106308
0.0547289
0.0102262
0.0117688
0.0503722
0.0661581
0.0293284
0.00183616
0.0307407
0.0339068
0.00694416
0.0242522
0.0803257
0.000877828
0.0116457
0.0103428
0.0476499
0.0262955
0.00346184
0.0244843
0.078144
0.00289234
0.00748157
0.012807
0.0131461
0.101872
0.00323253
0.0472396
0.0432303
0.0448526
0.0108987
0.0408067
0.0665503
0.00620222
0.0341293
0.00268726
0.0240045
0.00226662
0.0576594
0.000727387
0.00085158
0.0043527
0.00226881
5.32971e-05
0.00113165
0.00120816
0.00652352
0.00654001
0.0539768
0.0106784
0.0444753
0.0132127
0.00982652
0.049446
0.00808095
0.0544722
0.0421889
0.0320422
0.0493166
0.0280855
0.047408
0.0484147
0.00565978
0.0439077
0.0674983
0.00149216
0.0654095
0.00373163
0.052117
0.00132789
0.0809259
0.0151726
0.011381
0.0355637
0.0295583
0.034873
0.076477
0.00300881
0.0584341
0.0111589
0.0591373
0.0871356
0.0843815
0.00757621
0.0714058
0.0347667
0.00375431
0.0224793
0.0201411
0.0690357
0.00141799
0.0953032
0.0186958
0.00142246
0.0455001
0.0134553
0.0179104
0.0101043
0.0497771
0.103427
0.0575122
0.0438558
0.0485824
0.010888
0.0430949
0.0622721
0.0504724
0.0542175
0.0211028
0.0123222
0.0126903
0.0142349
0.0574228
0.0153418
0.0199019
0.0132815
0.0603252
6.40535e-05
0.018715
0.0158302
0.0760987
0.0849836
0.00815698
0.0387028
0.0675326
0.00866629
0.00271689
0.0390336
0.0170325
0.0480765
0.0192484
0.00689253
0.00734467
0.0163944
0.0190257
0.0121146
0.0594992
0.000887098
0.057425
0.118075
0.106342
0.0158138
0.0649501
0.0687092
0.012346
0.00944537
0.0139839
0.00913155
0.0166159
0.0265074
0.015871
0.0333906
0.0357816
0.028449
0.0565115
0.0205744
0.0313144
0.0510951
0.00801325
0.0474158
0.0454892
0.0681671
0.00301481
0.0304878
0.0425105
0.0583959
0.00927625
0.0110356
0.0458922
0.00125294
0.0145353
0.01819
0.00323467
0.00227993
0.00711234
0.000400678
0.000411854
0.000370584
0.000375576
0.000416525
0.000420564
0.00039429
0.000421149
0.000423086
0.000458812
0.000389603
0.000389136
0.000397381
0.000401596
0.000380347
0.000402602
0.000393224
0.000392857
0.000369268
0.000369762
0.000364163
0.000364258
0.000366719
0.000368387
0.000370851
0.000369713
0.000369053
0.000365922
0.000368007
0.000369283
0.000368459
0.000383216
0.000383812
0.000360949
0.00036355
0.000373216
0.000365278
0.000359865
0.000360183
0.00038112
0.000380541
0.000369546
0.00037383
0.000372917
0.000370064
0.000367664
0.000359997
0.000370788
0.000384313
0.000371028
0.00037621
0.000377281
0.000365306
0.00140938
0.000386731
0.000450016
0.000334488
0.00042817
0.00101995
0.000417502
0.00035475
0.000396919
0.0014762
0.000307983
0.000395095
0.000394486
0.000570346
0.000296994
0.00178273
0.0233009
0.0249102
0.0178608
0.00996056
0.0085665
0.00693639
0.00738642
0.0134398
0.0141241
0.0128641
0.0273624
0.0212968
0.0329348
0.0176466
0.0112736
0.00589801
0.000445201
0.000393033
0.000895838
0.00107578
0.000841942
0.000414529
0.000211057
0.000283907
0.000378863
0.00042805
0.000445164
0.000888151
0.000758033
0.000345193
0.0062241
7.95212e-05
0.000132745
0.000362657
0.000375914
0.000386164
0.000386905
0.000376919
0.000371562
0.000391947
0.000398241
0.000375059
0.00037393
0.000392209
0.000391492
0.000414483
0.000390501
0.000378856
0.00037854
0.000379733
0.000713092
0.00067458
0.000763025
0.000664927
0.000610257
0.000783832
0.000830951
0.000777628
0.000743237
0.000773692
0.000750535
0.000721943
0.000780087
0.000718737
0.000727149
0.000822041
0.000823397
0.000590501
0.00042121
0.000377536
0.000394704
0.000379416
0.00038047
0.000217125
0.000282863
0.000378957
0.000377125
0.000516955
0.000357343
0.000374716
0.00037579
0.000481662
0.000377396
0.000256136
0.00134505
0.00229063
0.00277509
0.000417516
0.000183068
0.00273013
0.000380959
0.00105886
0.000289041
2.65298e-06
0.00304683
0.00157709
0.00154703
0.000666794
0.000797988
0.000540724
0.00263533
0.00274429
0.000348037
0.000338278
0.000400517
0.000471076
0.000345319
0.000273646
0.000344304
0.000356221
0.000309948
3.04707e-05
0.000463066
0.000267079
0.000188307
0.000354846
0.00037197
0.000366753
0.000396284
0.000356333
0.000336001
0.0003454
0.00038277
0.000372318
0.000367976
0.00039477
0.000389641
0.000376059
0.000373036
0.000365155
0.000362736
0.000376961
0.000361638
0.000356873
0.000386045
0.000389665
0.000390286
0.000407787
0.000427889
0.000395245
0.000379361
0.000410762
0.000404125
0.000401773
0.000365132
0.000430234
0.000416915
0.000378919
0.00044917
0.000373491
0.000425852
0.000409727
0.000401317
0.000416329
0.000421526
0.000364921
0.000381559
0.000358492
0.000354556
0.000345565
0.000369592
0.000353104
0.000284319
0.000916315
0.000253421
0.000708177
0.00198479
0.000176711
0.00119789
0.00142801
0.00163939
0.000789106
0.000556264
0.000194436
0.00122691
0.000357614
0.000255371
0.000375574
0.000674079
0.000151931
0.00185934
0.000454815
0.000258307
0.00306009
0.00139846
0.000689004
0.000261625
0.000350775
0.000261287
0.000305179
0.000332752
0.000281212
0.000411418
0.00266705
0.000819923
0.00099012
0.000454946
0.000358436
0.000358099
0.00035153
0.000330837
0.000332649
0.000343599
0.000357183
0.000356365
0.000346765
0.000344277
0.000342488
0.0003516
0.000350124
0.000350408
0.000353999
0.000351571
0.000351105
0.000355365
0.000350697
0.000354988
0.000350627
0.000347977
0.000349006
0.000348603
0.000348401
0.000352702
0.000348977
0.000348004
0.000348755
0.000348215
0.000348092
0.000348539
0.00245406
0.00555038
0.00596119
0.000319249
0.00116162
0.00382459
0.00175768
0.000265178
0.000889217
0.00583815
0.00420855
0.00363412
0.00414145
0.0045941
0.00273688
0.00666587
0.00854638
0.00653738
0.00891111
0.00315212
0.0027952
0.00526543
0.00802562
0.00364626
0.00509906
0.00726407
0.0114251
0.00664936
0.00384337
0.00306795
0.00346996
0.00326872
0.000492987
0.000961298
0.00333508
0.00222665
0.000814692
7.295e-05
0.00214425
0.000591627
0.00560009
0.0119592
0.0256826
0.0320414
0.00217962
0.0189374
0.044643
0.0167149
0.0312538
0.00542686
0.00909638
0.0050284
0.0119198
0.000435088
0.00158538
0.0223206
0.0119367
0.00184162
0.0219301
0.0022265
0.00804255
0.0053212
0.00683835
0.0102401
0.0235448
0.0159795
0.0197078
0.0164902
0.0181779
0.0135189
0.0111382
0.0127816
0.0172166
0.000453
0.0005189
0.000268911
0.000237084
0.000361878
0.000333988
0.000375028
0.000387058
0.0015391
0.000327357
0.000503059
0.000555271
7.75312e-05
0.000353139
0.000603264
0.000337514
0.00046279
0.000412353
0.000431721
0.000811429
0.00125512
0.000403053
0.00035314
0.000348102
0.000354889
0.000357875
0.000347789
0.000353063
0.000353802
0.000354303
0.000355698
0.00035056
0.00034919
0.000349845
0.000353345
0.00035583
0.000349745
0.000353996
0.00034958
0.000349403
0.000347196
0.000351199
0.000227641
0.0011117
0.000255781
0.000379316
0.000657576
0.000923382
0.000327822
0.00027377
0.000407511
0.000362456
0.000358064
0.000564936
0.000492197
0.000872649
0.000377506
0.000376794
0.000370567
0.000702227
0.000300209
0.000348196
0.00042043
0.00030943
0.0045266
0.00979893
0.00036066
0.000325991
0.000310784
0.000516878
0.000247065
0.000346502
0.00100152
0.00334017
0.00593625
0.00434031
0.000180385
0.000335961
0.000365028
0.000886625
0.000111272
0.000359121
0.000357871
0.000352606
0.000354414
0.000352154
0.000355047
0.000353466
0.00035511
0.00035552
0.000356417
0.000354396
0.00035413
0.000360193
0.000364572
0.000367256
0.000400225
0.000418742
0.000373827
0.000390767
0.000400988
0.000424451
0.000381708
0.000389481
0.000409864
0.000724578
0.000739179
0.000699182
0.000980784
0.000439871
0.000330012
0.000950459
0.00163606
0.000461356
0.000118321
0.00090469
0.00100206
2.1763e-06
0.000571645
0.000504137
0.00115732
0.00042345
0.00365286
0.00447107
0.00414298
0.00556738
0.00426221
0.00317032
0.00426308
0.00337746
0.00308751
0.00353072
0.00407315
0.00361986
0.00356342
0.00346563
0.00480582
0.00328329
0.00408623
0.00332494
0.0034741
0.0031954
0.000335804
0.000435025
0.000357139
0.000348442
0.000484485
0.0012041
0.00221525
0.000550831
0.000442559
0.000202322
0.00220037
0.00189996
0.000371532
0.000753627
0.00109746
0.00261084
0.030279
0.0300336
0.0259894
0.0246424
0.00944912
0.0143631
0.0128809
0.0239478
0.0240165
0.0220494
0.00894624
0.0167647
0.022916
0.000366529
0.000376805
0.000369222
0.000359805
0.000362215
0.00036205
0.000375259
0.000360863
0.000364073
0.000361584
0.000358901
0.000360721
0.000762286
0.00218697
0.000249937
0.00060695
0.0018587
0.00124461
0.000426382
0.000414178
0.00042648
0.000458924
0.000339119
0.000338392
0.000300817
0.000292059
0.000278715
0.000610809
0.00109869
0.000345344
0.000581255
0.000857747
0.000678824
0.0013123
0.00162769
0.00169268
0.000303776
0.000395204
0.00104118
0.00103242
0.000369297
0.000366501
0.000681387
0.000231536
0.000745861
0.000375848
0.000381883
0.000430188
0.000683507
0.000373953
0.00629318
0.00623888
0.00460862
0.00469791
0.00558064
0.00627198
0.00336535
0.00293477
0.00357113
0.00444055
0.00494866
0.00369699
0.00522155
0.00349288
0.00660229
0.00496651
0.00585811
0.0159051
0.0111901
0.00467726
0.000241899
0.00122555
0.000252469
9.84342e-05
0.000405116
0.000432071
0.010406
0.00550363
0.00067632
0.00222228
0.00114356
0.000884251
0.0108179
0.0522281
0.0613456
0.0556582
0.0080658
0.0351459
0.000491644
0.000685596
0.00415783
0.0106895
0.00420151
0.00290893
0.0211392
0.0451985
0.0698193
0.0402224
0.0508754
0.0524224
0.00325812
0.0298076
0.00177829
0.00119638
0.00100431
0.000885453
0.00101126
0.000852347
0.000983966
0.000869347
0.000689321
0.00212085
0.00237224
0.00132722
0.00120913
0.000773989
0.00216624
0.000569741
0.000726425
0.000898922
0.000695185
0.00186923
0.00177257
0.00581862
0.000103344
0.0049572
0.00419197
0.00417888
0.00543677
0.00377112
0.00658923
0.000475287
0.000568785
0.000432063
0.000429547
0.000422933
0.000490225
0.000388647
0.00036747
0.000495734
0.000418794
0.000412649
0.000370869
0.000395381
0.000386675
0.000364704
0.000370247
0.000470946
0.000497086
0.000501281
0.000547325
0.00170861
0.00207823
5.99365e-05
0.00141008
0.00118961
0.000284974
0.00173855
0.00367286
0.00745547
0.00207743
0.00183104
0.00246158
0.00312189
0.00940673
0.00884442
0.0003963
0.000910145
0.000663394
0.000462571
0.000372776
0.00106163
0.000571337
0.000922449
0.00100542
0.0010211
0.000405209
0.0004044
0.000425766
0.00035256
0.000829315
0.000808109
0.000418137
0.000320551
0.000327795
0.000313623
0.000171615
0.000445729
0.000308772
0.000393778
0.000664217
0.00191278
0.00168181
0.00157253
0.00906567
0.00059983
0.00084181
0.00316294
0.00295988
0.0013891
0.00130114
0.00309625
0.00327812
0.00166427
0.00302321
0.00113065
0.0008894
0.000910168
0.000974135
0.00376088
0.00106236
0.00045515
0.000440677
0.000420533
0.000409973
0.000424848
0.000664172
0.000343616
0.000431599
0.000303379
0.000384677
0.000298224
0.000362895
0.0214643
0.0824051
0.00890729
0.060436
0.0379331
0.00339177
0.0208068
0.00269846
0.00754348
0.00645155
0.0333678
0.0449874
0.0076817
0.0114374
0.0347278
0.00213137
0.0120127
0.00174735
0.0170476
0.0558964
0.0632878
0.0475324
0.0104401
0.016367
0.014408
0.0733773
0.00889308
0.066639
0.0111821
0.0136865
0.0174222
0.014486
0.012117
0.0124768
0.035175
0.03783
0.0227238
0.000389088
0.00056164
0.00037879
0.000397479
0.000408159
0.000350948
0.000348713
0.00037714
0.000351159
0.000342635
0.000351597
0.000372021
0.000372573
0.000384029
0.000340593
0.000377565
0.00800131
0.00233519
0.0182886
0.011318
0.0561718
0.0538482
0.0122657
0.0502673
0.0567078
0.0680556
0.0635558
0.0737659
0.0150012
0.0595755
0.00969142
0.0664709
0.00825772
0.0129712
0.0045644
0.0577392
0.00194936
0.0354101
0.0298998
0.00436743
0.0187623
0.000956065
0.0393291
0.00450122
0.026532
0.000301327
0.00439049
0.00561207
0.00500508
0.00515257
0.0118475
0.0182415
0.0345577
0.0800319
0.0639748
0.123458
0.00875041
0.043501
0.0503705
0.0106948
0.0581328
0.0807166
0.0468809
0.087132
0.00748592
0.0121909
0.00509452
0.0344987
0.002612
0.0082937
0.00431353
0.0568374
0.00339792
0.0236809
0.00317064
0.0248753
0.00398679
0.00434057
0.0292309
0.0190614
0.00549769
0.00197972
0.00344632
0.00167164
0.00041631
0.00104154
0.000730016
0.00129157
0.0015408
0.000256542
0.000380971
0.000392182
0.00220678
0.00313857
0.000735544
0.0016037
0.000265725
0.000666442
0.000675388
0.000998804
0.00102462
0.000516753
0.000535985
0.000672901
0.000668091
0.00162847
0.00307911
0.000226548
0.0011252
0.000953204
0.0108271
0.0258241
0.00428582
0.000902075
0.000899718
0.000914718
0.000963838
0.000909146
0.000872752
0.00319228
0.00361974
0.0054802
0.00284933
0.000126995
0.00100029
0.00137803
0.000803392
0.00253163
0.00235147
0.00714682
0.00246473
0.000565758
0.000681018
0.00242831
0.00181073
0.00306498
0.00340771
0.00241709
0.000761501
0.00185906
0.000905076
0.00326603
0.00267081
0.00239693
0.00314399
0.000920018
0.000508313
0.00416313
0.00311633
0.00595281
0.00419137
0.00373624
0.00200209
0.000945081
0.00175013
0.000269406
0.0119333
0.0136692
0.00711927
0.00825971
0.000666051
9.11027e-05
0.00945558
0.00672295
0.000662178
0.00729997
0.0194257
0.00666765
0.00152517
0.00886659
0.00267178
0.0110628
0.000306131
0.000134331
0.00206385
0.000109224
0.0016504
0.0403319
0.0505487
0.0183069
0.00977101
0.00931881
0.00802159
0.000771895
0.00775873
0.00754603
0.0253467
0.0012948
0.000321521
0.000108748
0.00650001
0.0114479
0.00771499
0.00763017
0.00665845
0.00435503
0.0057182
0.00227533
0.00316048
0.00201692
0.00129305
0.00513968
0.0183496
0.0123053
0.00290273
0.00738772
0.0104868
0.0009613
0.000974462
0.00102898
0.00114853
0.000998228
0.000979121
0.0016601
0.000964378
0.00109379
0.000757638
0.000973334
0.000948239
0.00101737
0.00104139
0.00110064
0.00110482
0.00107258
0.00101003
0.000998618
0.0010356
0.0727114
0.0790031
0.0405789
0.0773907
0.0357023
0.0391386
0.00791639
0.0232598
0.074213
0.0408849
0.00709756
0.0735326
0.0125707
0.0107161
0.064839
0.0535655
0.0069896
0.0451302
0.0095494
0.0300455
0.000715946
0.00118834
0.00132966
0.000983345
0.000885756
0.000944388
0.0010162
0.000990231
0.00104069
0.000994254
0.000939755
0.00106821
0.00105233
0.000770996
0.00106379
0.00094542
0.00141961
0.0510462
0.059391
0.0787003
0.00963349
0.0349485
0.0487601
0.054285
0.0718263
0.0140021
0.0651595
0.0102064
0.052484
0.000990218
0.00090996
0.00059527
0.00028357
0.000874214
0.000725537
0.000707945
0.000489072
0.000356338
0.00089993
0.000704332
0.000373465
0.00445072
1.71647e-05
0.0016977
7.6884e-05
0.00243762
0.00814143
6.93714e-05
0.0050141
0.00709611
0.0137075
0.0108567
0.000985286
0.00154742
0.0211334
0.0114524
0.0206898
0.00144427
0.00141425
0.00337376
0.000879785
0.00145958
0.00113607
0.000743714
0.00597103
0.0012749
0.00236296
0.000845407
0.00270868
0.0239397
0.00720168
0.00132008
0.0100405
0.0449777
0.00152555
0.00047451
0.0191564
0.056543
0.00150091
0.00467488
0.00456171
0.0116795
0.00368819
0.0135967
0.0201536
0.0190808
0.00762216
0.00865257
0.029696
0.0158712
0.0184844
0.00460058
0.000525325
0.0149707
0.0060923
0.00523119
0.00103151
0.000366572
0.000539908
0.000727851
0.0011346
0.000303312
0.000344323
0.000283043
0.000298333
0.00172164
0.00246215
0.000412434
0.000314946
0.000352685
0.000782813
0.00149243
0.00129998
0.00184677
0.000201804
0.000844671
0.0172064
0.00982496
0.0622778
0.051219
0.0177434
0.055664
0.0447272
0.0339262
0.0164625
0.00119346
0.000198482
0.00265212
0.00613798
0.000307453
0.000960262
0.000972245
0.000443026
0.00148483
0.000960468
0.000933356
0.000978245
0.000975692
0.000569593
0.000557163
0.000890708
0.000912673
0.00103613
0.000778463
0.000744106
0.00103864
0.000831854
0.00219788
0.00105326
0.00111241
0.000864122
0.000775796
0.0293983
0.0388493
0.00098795
0.0060815
0.0221538
0.00154633
0.00292772
0.00564421
0.000981619
0.00378334
0.0012091
0.000179193
0.00318984
0.0352173
0.0430706
0.0116524
0.00603952
0.000142328
0.0385316
0.0292322
0.00743552
0.00377876
0.00425619
0.00294124
0.00152068
0.00649165
0.00321833
0.00225424
0.00270408
0.00137939
0.00153863
0.00500909
0.00575379
0.00169579
0.000787452
0.000331669
0.000383865
0.000381962
0.000488863
0.000491467
0.000376851
0.000369398
0.000377914
0.000600739
0.000417486
0.000491853
0.000467915
0.000651042
0.000520103
0.000401285
0.000387653
0.0300864
0.0151087
0.0217232
0.0334864
0.0288673
0.023267
0.0567104
0.0315348
0.0434771
0.0410095
0.00758204
0.0536866
0.0230933
0.0603568
0.0237663
0.0329946
0.0508369
0.0885338
0.0141495
0.0546545
0.0824893
0.0163001
0.0521865
0.00681229
0.0511078
0.0405251
0.00988004
0.00644255
0.00549184
0.0419352
0.0448739
0.000466869
0.00482787
0.0503928
0.000256694
0.0371639
0.0357431
0.00443336
0.00268602
0.000387456
0.0310563
0.00140092
0.00117818
0.00133519
0.00126726
0.00220936
0.00220187
0.00170973
0.00171459
0.000146384
0.00097608
0.00017203
0.0147445
0.0185169
0.0187651
0.00544336
0.00525233
0.00619123
0.00314959
0.0060506
0.00881134
0.00840844
0.00950408
0.0333398
0.00663421
0.00706514
0.00819363
0.0262213
0.029286
0.0905042
0.0543054
0.0427603
0.00288968
0.0162602
0.0165747
0.0523765
0.00560592
0.00159978
0.0183329
0.0191862
0.0198446
0.00528626
0.0493219
0.0365126
0.0259426
0.0137449
0.0631487
0.00293633
0.0123764
0.0112442
0.00617877
0.0345268
0.0268064
0.0340921
0.00446577
0.0188991
0.0285331
0.0341342
0.00386801
0.0520604
0.0462425
0.0277205
0.0288865
0.0617307
0.0522967
0.0529182
0.00706046
0.0334816
0.051802
0.023546
0.0263585
0.0365958
0.0245813
0.00472298
0.00200555
0.00118528
0.00251633
0.000228699
0.00405387
0.000932336
0.0195238
0.000636849
0.000567378
0.00210138
0.00380246
0.00038045
0.000468233
0.000285764
0.000800176
0.000354786
0.000357898
0.000349762
0.000377078
0.000286392
0.000219312
0.000321874
0.000361789
0.000351164
0.000357309
0.000366852
0.000366828
0.000141636
0.000365313
0.000320702
0.000267319
0.000233911
0.000372435
2.38154e-06
0.000400772
0.00128061
0.000717029
0.000207331
0.000369634
0.000359886
0.000357308
0.000355916
0.000354324
0.000345821
0.000347274
0.000354828
0.000360304
0.000348609
0.00034156
0.000350073
0.000361874
0.000340666
0.000341573
0.000345592
0.000348786
0.000349679
0.00929272
0.0143241
0.00301028
0.00293944
0.00233035
0.0019431
0.0273784
0.0316221
0.0133756
0.019756
0.0137889
0.00192083
0.0093217
0.00900531
0.0325636
0.0268882
0.030503
0.0022868
0.000331091
0.00186461
0.0486363
0.0329461
0.000331972
0.00307445
0.00305608
0.00270669
0.0192422
0.00618682
0.0150367
0.000348599
0.000593853
0.0157361
0.0230768
0.000298889
0.000513159
0.000509565
0.000419909
0.000699008
0.000617904
5.6673e-05
0.02409
0.0208593
0.00120864
7.08337e-05
0.00415967
0.013915
0.0308578
0.0133058
0.0154368
0.0215861
0.0286931
0.0518726
0.00592146
0.0418875
0.0043784
0.00945097
0.0204862
0.0103388
0.000344661
0.00034167
0.000368036
0.000307383
0.000343418
0.000373657
0.000380601
0.000337619
0.000362298
0.00036711
0.000365108
0.000360797
0.00034766
0.000361431
0.00081262
0.000974444
0.000521335
0.000724119
0.00322848
0.000485384
0.000557454
0.00301454
0.007644
0.00298121
0.0065213
0.00166544
0.00133383
0.00292165
0.000139819
0.00133691
0.00126487
0.000684002
0.000856161
0.00400411
0.00213312
0.00594853
0.00830056
0.00177434
0.00391991
0.00515725
0.00615547
0.00178056
0.0108941
0.00473181
0.00556691
0.00928894
0.0065634
0.00144346
0.00169419
0.000971882
0.00119065
0.0012844
0.00111244
0.0011906
0.00113279
0.000940447
0.000893728
0.0283449
0.00213215
0.0238859
0.0028217
0.00609524
0.00367552
0.00151742
0.00812147
0.0119795
0.0151768
0.0347788
0.0324402
0.0263201
0.00254738
0.00330299
0.00151607
0.0241987
0.0216662
0.00536491
0.00270439
0.00238546
0.00606202
0.00927615
0.0351142
0.0045249
0.00930393
0.033118
0.00850539
0.0261144
0.0015981
0.00758239
0.0064481
0.0319218
0.00715416
0.0367732
0.000244454
0.000769341
0.0334688
0.0358568
0.0247531
0.000872184
0.000870668
0.000868725
0.000871375
0.000873279
0.000861166
0.000877454
0.000873407
0.000867633
0.000879635
0.000872505
0.000868262
0.00086718
0.000861743
0.000863121
0.000867265
0.000874258
0.000863321
0.000871595
0.00392025
0.00317349
0.00128125
0.00136413
0.0232938
0.0173039
0.00365493
0.0081807
0.00673919
0.0157568
0.00308864
0.00248874
0.0047697
0.00406747
0.00660379
0.0064356
0.00170936
0.0047466
0.000947951
0.000964811
0.000971919
0.000934214
0.000953637
0.000970977
0.000977218
0.000977693
0.000965656
0.00102867
0.000994228
0.000981991
0.000995004
0.00100983
0.00102787
0.00102217
0.000387265
0.000418629
0.000408708
0.00038508
0.000394244
0.000383889
0.00038722
0.000381467
0.000395586
0.000392231
0.000375852
0.000381762
0.000377827
0.000596693
0.00053619
0.000630359
0.000630919
0.00059876
0.000505149
0.000718074
0.000639391
0.000707316
0.000632964
0.00068774
0.000711593
0.00058101
0.000637355
0.000598714
0.000429348
0.000450242
0.000399124
0.000424929
0.000454501
0.000220329
0.000401677
0.000407713
0.000458156
0.000455082
0.000461016
0.000355326
0.000439059
0.000442493
0.000428401
0.000382391
0.000884937
0.000889421
0.000884521
0.000879708
0.000882246
0.000882661
0.0008772
0.000893837
0.000888259
0.000888158
0.000892173
0.000892335
0.000878283
0.000876999
0.000880657
0.000874969
0.000896012
0.000884152
0.000889907
0.00088913
0.0149804
0.0135114
0.0125189
0.0100469
0.0131548
0.0137677
0.0181235
0.0130426
0.0201628
0.0122276
0.0101034
0.0230505
0.016782
0.015156
0.0194912
0.0225651
0.0249591
0.018181
0.0242647
0.0268582
0.0204912
0.0259518
0.02431
0.0333414
0.0236545
0.0244442
0.0269844
0.0369536
0.0205389
0.0207964
0.0226862
0.0364595
0.0235881
0.0009085
0.000910716
0.000891194
0.00090148
0.000914538
0.000898431
0.000874777
0.000881131
0.000887718
0.000887175
0.000886105
0.000889906
0.000886268
0.000896545
0.000877327
0.000627919
0.000511289
0.000495237
0.00053827
0.000998204
0.000832324
0.000914155
0.00125942
0.000919234
0.00087722
0.000884718
0.000875901
0.00087597
0.000883349
0.000877376
0.00087749
0.000880864
0.000874739
0.000874773
0.000870015
0.000868876
0.000869921
0.000875569
0.000880225
0.000874566
0.000873503
0.000871676
0.000875924
0.000877776
0.000872117
0.000857638
0.000362884
0.000336041
0.000352716
0.000359933
0.000334293
0.000354658
0.00036008
0.000286462
0.000373396
0.000345048
0.000395384
0.000364658
0.000370555
0.000371972
0.000338816
0.00034419
0.000322936
0.000248249
0.000369602
0.000433585
0.000453983
0.000417684
0.000416395
0.00040095
0.000452785
0.000401781
0.00041215
0.00043104
0.000410319
0.000423216
0.00040175
0.000381025
0.000390193
0.000395143
0.000387992
0.000419156
0.000408905
0.000436573
0.00039119
0.000417919
0.000394957
0.000421261
0.000382181
0.000384646
0.00038729
0.000380228
0.000362031
0.00036562
0.000366
0.000360854
0.000365057
0.000361621
0.000361543
0.000360282
0.000371529
0.000361472
0.000375283
0.000357735
0.000357679
0.000350257
0.000362857
0.000371346
0.000369635
0.00036217
0.000345478
0.000356808
0.000345819
0.00036391
0.000368189
0.000366671
0.00035703
0.000369068
0.000321923
0.000325166
0.000310265
0.000347817
0.000375439
0.000365183
0.000366247
0.000377642
0.000287007
0.000485073
0.00015301
0.000392025
0.000419695
0.000381303
0.00041039
0.000363169
0.000356713
0.000400847
0.000368128
0.000368205
0.000434274
0.00036926
0.000354481
0.000466241
0.000385203
0.000367214
0.000367035
0.000382039
0.000459736
0.000367353
0.000354414
0.000834399
0.000874907
0.000851884
0.000794884
0.000848003
0.000864365
0.000877406
0.000837013
0.000831738
0.000846771
0.000842568
0.000865137
0.000848669
0.000370667
0.000371405
0.000400016
0.000387022
0.000371739
0.000381497
0.000404436
0.000406424
0.000396737
0.000398912
0.000402022
0.000384259
0.000402712
0.000357951
0.000349821
0.000351496
0.000352514
0.000353804
0.00035987
0.000357505
0.000361186
0.000352177
0.000348983
0.000353833
0.000351968
0.000343242
0.000346851
0.000352239
0.000337862
0.000331203
0.000307461
0.00034346
0.000392511
0.000342447
0.000327032
0.000458483
0.000474558
0.000650596
0.000411988
0.000439089
0.000341561
0.000344055
0.000458631
0.000352203
0.000310758
0.000527561
0.00032208
0.000481937
0.000259338
0.000881904
0.000322283
0.000315567
0.000282129
0.000703514
0.000310437
0.00030343
0.000315823
0.000331389
0.00111821
0.00158808
0.00135168
0.00105933
0.00120774
0.00139402
0.00218953
0.00147644
0.00100774
0.00124035
0.00197366
0.000390966
0.000384841
0.000411189
0.000468658
0.0005386
0.000421303
0.000479394
0.000437651
0.00048111
0.000492735
0.000416123
0.000419485
0.000438346
0.000408568
0.000520559
0.00013067
0.000719354
0.000292898
0.000508926
0.000498653
0.000583818
0.000527931
0.000500921
0.000435957
0.000483593
0.000519472
0.000468484
0.000648041
0.000415769
0.000447318
0.000492732
0.000553278
0.000443908
0.000442327
0.00045822
0.000401534
0.000424833
0.000421005
0.000353608
0.000436394
0.000389259
0.000442434
0.000543587
0.00049126
0.000418558
0.000487744
0.000368465
0.00036896
0.000359423
0.000363625
0.000374053
0.000379192
0.000378287
0.000388518
0.000441995
0.000447319
0.000386555
0.000380498
0.000390203
0.000417727
0.000403597
0.000391421
0.00041241
0.000412558
0.000402803
0.000927967
0.000924208
0.000939263
0.00091431
0.000914526
0.000934239
0.000941864
0.000925635
0.000935631
0.00093028
0.000914597
0.000935377
0.000910454
0.000545704
0.00025244
0.000377995
0.000347812
0.000390778
0.000381268
0.000366347
0.000399043
0.000387352
0.000376217
0.000384967
0.000503924
0.000756601
0.00037859
0.000392757
0.000328067
0.000432073
0.000173209
0.000616195
0.00105962
0.00037435
0.000352348
0.000361034
0.000352545
0.000354125
0.000380752
0.000364645
0.000371588
0.000364485
0.00037226
0.000202423
0.000375784
0.000412868
0.000285574
0.000289297
0.00027803
0.000403317
0.000384794
0.00036065
0.000513204
0.000529315
0.000475202
0.000474469
0.00050649
0.000511241
0.000413525
0.000402458
0.000473652
0.000405938
0.000404041
0.000546306
0.000411723
0.000391025
0.000381209
0.000379835
0.000390836
0.000439686
0.000419762
0.000389809
0.000442766
0.00038386
0.000382126
0.000389106
0.000429897
0.00042482
0.000434621
0.000272644
0.000343683
0.000334179
0.000238814
0.000356189
0.00133155
0.000407396
0.000797875
0.000702214
0.00164246
0.000299596
0.000413284
0.00492534
0.00425539
0.00321298
0.00605046
0.00806507
0.00288381
0.00458335
0.000100649
0.00551288
0.00510306
0.00626556
0.00574311
0.00225764
0.000596273
0.000277771
0.00399413
0.00225432
0.000330831
0.00046419
0.00355075
0.00493069
0.000593009
0.000341236
9.64926e-05
0.000576365
0.000825271
0.00752685
0.00721125
0.0119756
0.00869378
0.00865388
0.00686956
0.00979737
0.00798647
0.00544738
0.0111909
0.00697952
0.00376968
0.00423205
0.00247749
0.0102244
0.00801727
0.00955622
0.00580052
0.0078945
0.0107378
0.00491073
0.00950056
0.00159518
0.00218534
0.00337966
0.00230344
0.000802843
0.00511561
0.013193
0.0151976
0.00215399
0.00987689
0.0137814
0.0082061
0.000446169
0.000435345
0.000613242
0.000627555
0.000392114
0.000341034
0.000355222
0.000396994
0.000927198
0.000812358
0.00141377
0.000247312
0.000360856
0.000361843
0.000382439
0.000455177
0.000637238
0.000566129
0.00278935
0.00887799
0.00880268
0.0288832
0.0397177
0.0138153
0.0156396
0.000840612
0.0379668
0.0391781
0.0100763
0.0121164
0.01016
0.0133336
0.00954701
0.000310067
0.0364385
0.0312641
0.0026071
0.0169457
0.00183711
0.00152918
0.000295878
0.000227529
0.00048674
0.000423918
0.000362231
0.000359009
0.000358748
0.000354515
0.00035427
0.000364059
0.000268366
0.000355105
0.000356264
0.000355054
0.00034975
0.000312879
0.00035535
0.000360397
0.00036872
0.000355088
0.000216373
0.00056889
0.0019721
0.000584194
0.000243838
0.000470052
0.00197037