/*--------------------------------*- C++ -*----------------------------------*\
  =========                 |
  \\      /  F ield         | OpenFOAM: The Open Source CFD Toolbox
   \\    /   O peration     | Website:  https://openfoam.org
    \\  /    A nd           | Version:  10
     \\/     M anipulation  |
\*---------------------------------------------------------------------------*/
FoamFile
{
    format      ascii;
    class       volScalarField;
    location    "2";
    object      omega;
}
// * * * * * * * * * * * * * * * * * * * * * * * * * * * * * * * * * * * * * //

dimensions      [0 0 -1 0 0 0 0];

internalField   nonuniform List<scalar> 
75457
(
27.0525
26.9153
23.3616
20.7496
25.3635
28.9391
18.8306
28.9391
16.7186
16.4082
15.4357
20.2868
19.9428
17.3092
3.78298
3.78352
3.78368
3.78358
3.78218
3.78271
3.78297
3.78039
3.78359
3.78297
3.78217
3.78502
3.78459
3.80977
3.80723
3.80776
3.78989
3.81206
3.8177
3.79686
3.78957
3.79983
3.79196
3.8399
3.81968
3.78656
3.78838
3.78629
3.79104
3.89295
3.95372
3.80859
3.79562
3.84264
3.62788
3.7872
3.78006
3.62233
6.1651
3.7314
3.77576
3.77687
3.57536
4.23177
4.01006
7.24433
5.56945
3.64844
8.69929
7.16556
7.08965
8.00486
6.64625
8.23685
8.48521
13.9672
8.17751
14.5391
7.72641
7.74136
7.99539
7.21623
7.61319
16.9196
16.8078
15.7361
21.7889
17.4967
15.4561
15.2129
14.26
15.6051
13.7281
14.9489
17.6313
19.5249
14.0264
14.7783
15.6468
11.0525
2.7764
3.87308
3.84555
3.64536
13.4334
2.71114
3.74997
3.26735
22.1359
20.008
39.6208
41.1054
20.8297
18.6958
20.4342
7.23806
5.6329
15.7332
15.6783
13.2365
5.16747
9.88185
22.1701
9.19686
8.55714
24.0697
5.91437
6.58229
6.54014
6.30515
7.63715
7.53407
15.3634
6.33895
11.394
7.17724
6.87007
3.52103
4.93819
3.37903
1.71715
12.0548
5.02358
3.22619
2.84538
22.5192
3.8848
3.85657
3.76711
3.7582
3.70327
3.43838
4.20903
4.86944
17.0571
2.93757
32.2576
6.29229
3.95966
3.31352
7.24411
13.098
7.50251
26.6112
4.02596
3.83167
22.5306
4.2418
4.23203
5.47949
5.83302
6.30096
5.62686
6.11396
5.14349
5.2437
5.61186
5.75677
5.65076
5.64363
5.25767
5.14846
7.18926
6.49827
6.12436
6.72834
2.2016
22.3351
2.80516
11.0809
26.5665
4.99511
2.3959
8.12278
11.8516
27.736
4.80893
6.51288
7.01564
11.1127
5.0814
23.2547
3.6702
3.68213
3.45395
3.74375
3.63547
4.86856
4.50818
9.0196
3.70155
4.15324
7.15539
8.54364
10.1922
10.2662
8.51422
6.18838
18.4609
20.3843
4.78951
7.74565
20.9214
6.03762
22.447
21.8994
21.9475
4.32069
8.63917
17.0107
6.36907
6.53644
19.9946
8.30577
2.81992
17.0107
4.01847
3.87012
12.6494
4.73257
5.37092
4.00107
3.79725
3.35364
3.00808
3.16984
3.88912
1.70255
15.6177
2.77402
9.83731
5.18505
2.29044
2.50675
4.82214
15.6177
3.78363
15.6177
4.21096
14.0825
0.597298
14.0825
5.64905
5.33049
5.40873
5.0211
4.73974
5.03241
1.85835
6.06454
5.41515
13.7733
11.1964
27.1008
13.2315
14.0179
21.2234
11.9225
3.03034
4.39705
5.72664
2.86911
6.02168
8.66963
12.2056
7.08807
2.98486
10.3594
8.13977
10.3594
3.14523
10.3594
4.94125
3.58893
3.15842
3.32998
3.78611
3.7043
3.41884
17.4917
13.3831
23.5289
11.8174
5.96503
5.42961
17.9682
6.64216
8.12412
21.7116
3.80122
4.02212
1.24053
21.7116
1.60625
3.78821
21.7116
1.814
4.04863
5.27594
3.56422
12.4944
19.9188
16.2573
13.6728
15.1648
26.3333
12.9171
18.9778
15.9761
13.2168
22.387
3.29733
3.40144
3.69873
3.10233
7.69214
6.84613
6.5287
3.8171
20.9921
3.95609
3.89333
5.2946
4.35939
24.914
4.74771
5.78892
25.3085
10.3103
12.5601
18.5105
5.22427
2.42665
11.3346
18.5105
4.56197
8.58282
8.30799
3.49328
2.97215
5.85086
5.8317
8.37171
24.2449
6.48765
3.53432
13.0418
18.7994
13.8374
18.423
3.75846
3.89209
3.93453
4.21917
4.99021
4.41647
4.86032
3.39376
4.17914
4.72904
16.827
7.8009
6.80075
4.98151
14.1229
6.98583
11.1291
9.02752
20.3088
21.1649
10.6717
0.722081
3.94906
2.58965
3.8526
3.75602
3.95996
4.20987
4.32613
3.91909
3.98362
4.348
4.41747
4.13473
4.34083
4.39452
4.69139
4.10735
4.09907
4.18418
4.1854
3.98706
4.22017
4.12772
4.13859
3.90687
3.91081
3.86624
3.87658
3.85912
3.91691
3.88579
3.89312
3.91321
3.91907
3.89098
3.87902
3.90998
4.06715
4.07209
3.87708
3.88486
3.96976
3.92344
3.87977
3.87918
4.04179
4.04489
3.9573
3.98572
3.9693
3.93916
3.93492
3.87765
3.95375
4.05996
3.9437
3.97617
4.00444
3.90611
3.68942
3.80316
3.81114
3.79026
3.80512
3.73585
3.75659
3.70264
3.77451
3.72759
3.78751
3.77115
3.76137
3.73293
3.74473
3.72077
26.6236
16.9399
19.2431
16.9399
11.5362
11.8702
12.4633
15.721
10.8962
11.5289
34.5657
30.8325
25.4022
17.7859
12.1215
9.19961
3.75941
3.74951
3.68394
3.69386
3.69551
3.67472
3.74658
3.74892
3.74569
3.75209
3.64933
3.70652
3.68238
3.65441
3.63951
3.61678
3.64133
3.69771
3.88521
3.99266
4.03406
3.93287
3.91286
4.09859
4.13279
3.87922
3.90882
4.10062
4.0966
4.26896
4.09868
3.92596
3.90336
3.89147
5.06351
4.87243
5.39505
4.83981
4.59324
5.61592
5.99997
5.52983
5.29152
5.60382
5.3318
5.18207
5.59484
5.13062
5.26138
5.96116
6.0933
4.09974
4.15199
3.87971
3.91813
3.89678
3.87151
4.08352
4.19463
3.89916
3.9419
4.15985
3.86646
3.88623
3.91631
4.00495
3.89419
4.05122
4.71149
4.29066
4.72032
5.23556
4.05556
4.91985
4.14852
4.62906
4.11381
4.12374
4.61142
5.46618
4.819
4.44812
4.67255
4.11106
5.4217
5.58524
3.83301
3.80431
3.80638
3.79861
3.84457
3.77009
3.83178
3.81991
3.81002
3.76391
3.80869
3.80305
3.79053
3.83544
3.89222
3.88418
3.94181
3.90032
3.98494
3.94977
3.91021
3.89071
3.88246
3.92567
3.93011
3.91712
3.88715
3.87242
3.86712
3.89794
3.87378
3.87506
4.09163
4.10912
4.11787
4.28579
4.42823
4.12316
4.04496
4.26162
4.21783
4.19376
3.9174
4.38716
3.95902
3.89262
4.05249
3.88563
3.99444
3.98056
3.95772
3.96743
4.02309
3.83284
3.81179
3.82151
3.84696
3.84691
3.81895
3.84216
3.84563
4.03189
3.84004
3.96961
4.39788
4.30375
4.35166
4.23055
4.2118
3.98842
3.91912
3.89434
4.39737
3.89908
3.92447
3.98012
3.79425
3.81919
3.73666
3.83658
3.8592
3.69533
3.65575
3.7859
3.82798
3.84848
3.84573
3.81864
3.82188
3.84267
3.86177
3.70321
3.7142
3.72978
3.79279
3.78014
3.78314
3.77892
3.79498
3.79445
3.78382
3.78562
3.78042
3.77945
3.78052
3.79039
3.78534
3.78013
3.78164
3.80245
3.79373
3.78928
3.80737
3.78889
3.80678
3.7886
3.78228
3.78396
3.7804
3.78181
3.79963
3.78134
3.78208
3.78075
3.7777
3.7789
3.77883
4.80348
5.53454
6.13657
4.04423
4.08061
5.0952
4.57648
3.61476
3.915
6.7232
5.49925
6.36783
6.46862
6.8501
6.16806
7.7268
9.98625
8.54119
11.5855
6.20786
6.16505
7.42216
9.84223
9.66576
9.26037
9.76038
10.5687
10.1435
6.83859
7.11123
6.81306
7.21484
3.7467
3.80463
3.73405
3.72175
3.70502
3.74576
3.75447
3.55021
3.38835
3.89589
4.11712
4.35762
3.54388
4.02645
4.67092
3.82132
4.3864
3.83246
4.41069
5.53298
6.87141
4.69048
4.96337
9.49448
7.25911
5.20783
7.30013
6.09132
4.73041
4.42691
4.58617
5.49834
5.43767
7.50587
8.67326
8.12201
7.04493
5.65958
8.65055
7.48842
7.79899
3.74743
3.74479
3.76761
3.76565
3.77436
3.77222
3.76674
3.76697
3.7088
3.74864
3.77016
3.75349
3.7558
3.7703
3.77264
3.77418
3.74754
3.72353
3.76353
3.74696
3.71358
3.7635
3.80081
3.79479
3.80614
3.79066
3.79201
3.80243
3.80487
3.78695
3.79373
3.79244
3.78967
3.79169
3.80402
3.78901
3.79098
3.80652
3.79304
3.78814
3.78961
3.78748
3.75336
3.80059
3.79367
3.79166
3.75909
3.77879
3.78953
3.79688
3.7877
3.78802
3.78905
3.7662
3.76869
3.78305
3.78454
3.78413
3.78468
3.77935
3.79535
3.78973
3.78251
3.79244
4.93131
5.66467
3.86553
3.93459
4.05737
4.28755
3.96556
4.03639
4.14619
4.56467
4.95799
4.76864
4.07401
3.89442
3.87694
4.06323
3.94882
3.85901
3.85868
3.80394
3.82614
3.80708
3.80449
3.79681
3.82766
3.8168
3.82211
3.82132
3.8116
3.86348
3.89618
3.81904
3.89061
3.93783
3.83269
3.86809
3.88891
3.94006
3.84783
3.86416
3.91346
3.76871
3.76514
3.71395
3.72705
3.78698
3.79285
3.74685
3.71235
3.77497
3.70751
3.73862
3.73985
3.71229
3.79668
3.71412
3.74627
3.80483
6.07618
6.27138
6.40785
7.04652
6.5907
6.19587
5.74956
5.67396
5.6298
6.0265
6.34998
6.19729
5.78892
5.92947
6.40057
6.0914
6.8565
6.1302
5.8664
6.01283
3.96811
4.17068
4.04794
3.98335
4.23374
4.48992
4.73624
4.05705
4.06338
3.98196
4.63459
4.7518
4.00464
4.18388
4.30642
5.05983
12.1722
11.0884
10.8052
11.4848
10.8368
9.92814
9.00798
11.1771
12.3097
11.5851
7.95967
8.71792
11.5097
3.93871
3.97571
3.95064
3.82907
3.83278
3.8643
3.95417
3.91193
3.88464
3.84325
3.81538
3.86716
3.71144
3.66195
3.60477
3.67367
3.76754
3.65665
3.70806
3.7126
3.67707
3.65313
3.79421
3.79832
3.79132
3.79212
3.78786
3.78108
3.672
3.78913
3.77313
4.18779
4.14619
4.53253
4.57306
4.63376
3.86094
3.93532
4.33409
4.23935
3.83889
3.83274
4.10599
3.83712
4.06505
3.85253
3.83158
3.84982
4.03727
3.86294
9.98345
11.2912
8.66713
8.76347
9.17091
9.55277
7.36272
6.76612
7.53505
7.27094
7.17331
6.6206
8.81127
7.21629
8.5435
7.60162
3.75425
3.92392
3.83028
3.74703
3.81757
3.82373
3.72341
3.79273
3.81039
3.81691
3.82952
3.82872
3.79427
3.84965
3.89383
3.85144
10.7785
8.12436
9.30002
8.33855
9.49743
6.28445
5.46456
5.58695
6.04156
5.99523
5.76149
5.71685
5.71635
6.56284
7.93327
6.98773
8.30747
8.23218
5.79523
6.08089
6.51994
7.63332
7.33735
6.95931
6.70496
7.00341
7.81076
7.28498
6.61095
7.36368
7.3633
7.09724
7.50982
6.80269
7.11605
4.65082
4.79342
4.76044
4.82236
5.12124
5.45669
6.16293
5.0816
6.2407
6.3867
6.1512
5.84589
7.0372
7.25064
4.27461
4.57021
4.14474
4.23161
4.20696
4.36746
4.01446
3.89937
4.40736
3.98253
4.11333
3.86589
3.99455
3.8602
3.86894
3.87489
3.7755
3.77835
3.77944
3.77903
3.79521
3.78778
3.77395
3.7777
3.7843
3.78265
3.73133
3.8061
3.86065
3.77778
3.76281
3.79747
3.72033
3.8573
3.85823
4.01467
4.67597
4.62924
4.18767
4.08311
4.87215
4.59552
4.84567
4.80786
4.82229
3.94955
3.97574
4.15726
3.95321
4.91556
4.83408
3.77948
3.82286
3.79771
3.80324
3.73016
3.74975
3.82547
3.77217
3.73437
8.25898
7.16934
7.18597
8.13162
8.51754
7.56403
7.38355
7.56509
7.51755
7.50222
7.57513
7.47753
8.22171
7.97137
8.07737
8.35574
8.05197
7.86471
7.41844
7.8524
3.76856
3.75955
3.75544
3.77596
3.77349
3.82915
3.52913
3.76659
3.72161
3.6561
3.68273
3.69314
3.41942
3.49331
18.0957
2.34463
13.3665
3.94408
4.48058
14.3829
14.3829
3.71593
6.03812
7.55091
14.3829
3.6009
4.55682
3.77457
4.26997
3.80671
3.92247
6.11172
7.49062
5.62541
3.81527
3.5861
3.61651
8.98258
10.4018
10.4745
11.6114
3.57111
3.59427
3.64926
3.57308
3.58357
2.83751
3.22327
2.5311
3.78391
3.76736
3.79423
3.78381
3.77799
3.79194
3.8023
3.78343
3.7967
3.79795
3.82301
3.80746
3.80695
3.80871
3.79774
3.80877
5.34028
4.09687
5.70041
4.92209
10.0041
8.39255
3.82854
6.92612
9.06544
5.92145
6.00257
5.91847
4.00621
6.75076
9.84563
6.8681
9.11451
4.03012
3.83475
6.26988
3.66298
4.16655
8.95946
3.54785
4.06795
3.56155
4.72945
9.89322
4.7498
3.64156
3.62183
3.60625
9.89322
3.58367
3.28603
3.78894
5.38313
3.42645
6.28757
3.4208
16.7548
4.6754
5.43866
21.8721
4.64943
7.90413
6.64665
4.70322
10.967
2.90288
3.20825
5.6003
7.65064
3.51743
3.53715
5.97237
3.52105
4.98963
7.65064
4.88143
3.46858
3.49513
6.28133
4.96942
3.44498
3.68746
3.67015
3.66558
3.72917
3.71161
3.72851
3.49341
3.51095
3.76218
3.75842
3.74969
3.64157
3.64954
3.70033
3.67843
3.70129
3.54681
3.54679
3.84334
3.58574
3.82499
3.80469
3.79165
3.79193
3.8179
3.27409
3.62226
3.79041
3.80303
3.96896
4.73126
3.75004
11.9011
11.5802
10.9802
10.7605
12.2856
10.6124
10.1992
10.789
11.1113
11.0571
12.3899
12.9155
10.2083
10.4348
10.8126
11.2215
10.9162
12.3897
11.6026
10.808
7.68677
10.0017
6.16097
6.03516
10.6662
13.5914
18.0515
13.0636
6.14917
6.41657
7.23185
8.97816
12.397
13.0636
7.95092
10.2063
7.12218
6.45294
7.6018
5.38488
4.78927
4.95631
4.39217
9.51547
13.3605
9.34132
11.1325
4.77252
4.72816
10.8678
7.56597
5.04334
5.62334
10.3737
7.43482
5.74531
10.2412
5.84339
9.3876
3.80651
3.804
3.70617
3.78654
3.74213
5.70115
7.09058
3.58787
3.39029
3.24297
3.91787
3.65617
3.71215
3.72228
3.93078
3.64143
3.78086
3.80197
3.78708
4.42498
4.46542
4.69998
5.20455
3.97097
4.52058
4.32781
4.35219
4.38577
3.87877
4.24077
6.42279
5.52806
4.26062
5.08248
5.50612
24.4804
22.8338
24.0559
26.0441
30.4424
27.4804
30.3376
43.4276
40.9908
36.5486
32.3057
31.6968
44.7039
33.7514
32.5219
31.2398
38.9025
38.7577
39.4779
29.3604
6.8064
7.79446
5.18258
8.07627
5.00726
5.29188
3.67994
4.42101
9.56742
5.48048
13.5548
7.3963
3.70416
3.64908
11.455
8.71184
13.4586
6.68118
15.8037
4.15706
30.6404
37.5222
41.4725
55.8861
42.0922
29.8289
24.617
39.5079
47.1101
41.9988
45.3346
35.6067
62.5744
41.0426
79.0093
80.9919
55.2752
1.81228
8.78015
4.91418
26.9348
4.29835
4.07778
5.88311
5.58324
32.2169
5.61024
1.11064
16.1346
12.1248
11.5897
15.2051
14.5524
13.1326
11.5989
10.9418
10.6982
14.0145
15.1433
12.5974
12.9259
12.8346
14.1771
11.5689
12.9128
12.8152
12.0137
15.4363
11.2128
11.3282
4.68554
4.5241
4.68351
4.92317
5.39178
4.61227
5.13652
5.29741
4.87304
5.19249
4.95777
4.86452
4.68938
4.56814
5.16402
5.05502
5.07655
4.78316
3.73598
4.28693
3.83464
3.85426
3.96411
5.1608
3.78201
4.00264
4.18979
5.46299
4.03734
3.7628
3.81739
3.94239
3.95173
5.30867
6.04071
5.91479
5.37854
4.89662
6.39195
5.13462
5.87707
5.67854
5.90107
5.14742
5.68544
5.8922
5.85443
3.81338
3.80289
3.78757
3.75543
3.82107
3.81719
3.83046
3.82589
3.7325
3.72386
3.81514
3.82579
3.81739
3.70796
3.76784
3.78746
7.12702
7.1774
7.30045
7.08425
7.10794
7.95366
6.83316
7.00632
8.37244
7.24432
6.47624
6.39409
7.09155
7.87217
7.71339
7.24521
7.2455
21.8352
21.9956
16.785
18.1157
19.6358
21.9359
25.1957
25.5079
18.6391
19.7743
25.5627
30.1079
24.8683
26.6346
23.7587
25.1504
24.1293
7.24211
5.79204
5.44554
6.89153
5.12246
11.2333
17.999
5.2786
9.36252
10.0865
6.52454
9.08616
10.3495
5.30651
6.5005
12.6606
22.5995
6.47073
6.0154
5.10568
4.18935
3.4321
3.54647
5.18231
5.04563
4.02971
3.77575
3.82387
3.84486
3.7662
3.82829
3.85063
3.77782
3.75757
3.75472
3.83759
3.8976
3.85572
3.73521
3.72697
4.01365
3.94335
3.9041
4.09508
4.02612
3.89336
3.86879
3.89597
4.1253
3.97168
4.0857
4.01733
4.31749
4.14034
3.94181
3.91665
4.0044
3.73842
3.86152
4.05955
3.76759
3.77488
5.2028
3.23427
4.43862
3.47516
9.81867
6.35289
3.97751
7.34401
3.74822
4.04484
6.63832
10.3651
13.4068
7.61857
12.3335
14.2357
6.3493
8.41267
6.86051
4.73873
3.86558
3.70647
7.59086
5.37171
5.80884
3.44762
3.63049
5.02963
3.56348
4.96628
4.73753
3.79181
3.70905
3.6763
4.37629
4.79475
5.27163
5.04439
5.29285
5.73668
6.87281
5.29741
4.65651
7.01101
5.80923
7.79804
6.96761
6.37568
4.44578
5.09376
5.48794
5.28268
7.96566
5.09376
6.7317
7.79771
7.26401
3.10433
3.81094
3.68495
3.65489
4.60932
4.1791
2.59489
4.94548
4.71601
3.45244
4.04491
4.19992
6.4502
11.7009
11.7009
3.95514
3.96095
4.33242
11.7009
5.38118
5.63572
4.36523
3.4368
3.99777
8.12236
3.98941
3.93321
3.81845
4.61779
4.3262
7.34683
8.12236
3.82463
4.32626
4.58386
3.74629
4.8792
5.64697
4.14143
4.09297
8.54098
7.75939
8.42211
12.1365
4.06403
8.51991
4.00811
3.74984
4.90469
3.92077
3.73358
3.72194
3.76161
3.74646
3.63673
3.60255
3.74272
4.04036
3.77017
3.78012
3.69198
3.70278
3.77883
3.77802
3.69075
3.75102
3.78506
3.77931
3.77728
3.77266
3.77691
3.77811
3.76987
3.77876
3.77412
3.77815
3.78036
3.77522
3.73727
3.77868
3.77594
3.76556
3.74543
3.77356
3.78867
3.77766
3.78124
3.78657
3.75463
3.83061
3.81205
3.80658
3.8027
3.79272
3.78219
3.78066
3.79418
3.80325
3.7802
3.7768
3.78683
3.78936
3.77645
3.7833
3.785
3.7836
3.7836
8.1433
6.79902
6.96048
6.80245
6.89858
6.39085
9.99307
6.85482
6.92109
10.153
7.61726
6.25754
6.19871
6.42443
14.3425
9.80012
11.5387
3.67717
3.74522
3.64718
5.57931
4.35034
3.73854
3.69129
3.70047
3.53391
3.83346
3.84417
3.84577
3.83804
3.82887
3.50963
3.70097
3.77609
3.79361
3.7874
3.79125
3.78769
3.85407
3.86281
4.66082
3.98587
3.87001
3.78618
4.01828
3.88638
4.84338
3.87226
3.80907
4.08317
4.70268
8.99784
12.7357
4.437
10.8123
3.79923
4.17539
3.73966
3.78076
3.78089
3.76755
3.78621
3.78216
3.76825
3.76203
3.77598
3.78983
3.8014
3.78073
3.77597
3.77451
3.77476
3.7734
3.76204
3.78419
3.77133
3.77154
3.77051
3.77567
3.80251
3.8644
3.7791
3.81241
3.79776
3.78038
3.78077
3.77752
8.56607
1.93155
19.3013
19.3013
10.0788
19.3013
8.88562
8.87646
11.7472
5.84427
9.62996
8.88334
9.159
9.18256
14.0634
8.05751
9.51776
10.0005
20.3897
24.2401
25.6166
20.3889
21.2799
21.4952
23.7125
19.633
23.4735
19.5472
4.9008
4.99947
4.77258
4.99947
3.95871
3.82882
3.68516
4.05138
4.57834
4.93427
5.19101
4.39101
4.54561
3.86092
3.84797
3.41244
4.61565
4.73627
3.66207
3.92572
3.75762
3.7469
3.97718
4.30096
4.98652
5.08378
5.4116
12.2309
4.45029
4.77697
4.17277
12.2309
9.52446
12.2309
3.94591
4.70898
4.34813
3.92998
3.8691
3.95232
8.00907
7.87024
7.42722
7.99983
7.59657
7.22276
7.6997
7.5563
7.07381
7.50002
7.15159
7.53243
7.7678
7.54418
7.14126
6.64128
6.96019
6.56783
7.21152
5.70044
5.71772
5.37338
5.54891
5.76847
5.90737
5.88743
5.95144
5.65139
5.62885
6.10717
5.86506
5.8389
5.76522
5.97247
5.98782
6.01687
6.09177
29.2615
29.9933
24.9797
23.6189
38.8025
31.9783
36.7118
30.9431
29.0098
45.8796
35.6817
37.5569
37.1941
44.015
58.1731
55.9096
3.93125
3.94863
3.94213
3.88732
3.90902
3.89746
3.92212
3.92575
3.90563
3.88865
3.88829
3.88086
3.90238
4.4919
4.26873
4.64891
4.65981
4.49782
4.20021
5.09083
4.69346
5.0145
4.68915
4.89222
5.01277
4.43502
4.65575
4.52303
4.03148
4.18456
3.95569
4.07314
4.22411
4.16392
3.96821
4.01891
4.17783
4.01753
4.1221
4.19597
4.05287
4.08555
4.23836
4.36044
9.95418
9.91687
9.72678
9.10131
9.24367
9.61253
8.95575
8.79271
9.2114
9.3929
11.2267
11.0289
9.49527
9.17035
9.34018
9.38707
10.8468
9.70764
9.8814
9.76422
8.1933
8.02679
7.427
7.03349
7.66002
7.33056
8.42724
7.54226
8.20713
6.40276
6.63462
8.45842
7.41696
7.92528
8.51742
9.94766
9.07338
8.61359
9.70228
10.0258
10.1458
9.50121
9.61649
10.7384
10.328
10.8965
12.6571
11.4231
8.33002
8.23336
8.78029
12.1053
10.4001
12.8449
11.9434
12.2047
10.1284
13.5787
12.2267
11.1749
10.7199
11.6127
12.4389
9.98525
9.75848
9.5985
10.3633
11.1244
3.99485
4.01888
4.0528
4.04057
4.12089
4.07618
4.0967
4.13583
4.16912
9.19616
9.55421
8.46425
8.48255
9.14798
8.36922
8.37192
8.76685
7.87559
7.82581
7.89921
7.80112
8.08282
8.86816
8.24274
7.9681
8.28167
8.44306
8.69131
9.21397
7.9139
8.65384
3.84596
3.83373
3.82267
3.85619
3.84558
3.85062
3.88778
3.83186
3.82702
3.8308
3.83891
3.86447
3.90128
3.8309
3.85416
3.83756
3.82558
3.82447
3.88398
3.81264
4.0606
3.98199
3.96391
3.9339
4.06755
4.06906
4.12992
4.1448
4.06011
3.98532
3.92944
3.90111
3.90579
3.96435
3.95631
4.01612
4.02282
4.08858
4.03106
4.02448
3.96585
4.15482
3.89329
3.98874
3.9952
3.90706
3.82715
3.8383
3.84544
3.82779
3.81461
3.81685
3.8058
3.80743
3.8485
3.80076
3.85675
3.82568
3.82459
3.79029
3.79012
3.83179
3.79838
3.79806
3.79365
3.78635
3.7898
3.79132
3.80149
3.83147
3.7865
3.80638
3.91593
3.94125
3.96324
3.98549
3.86364
3.88257
3.8675
4.1815
4.41566
4.15213
4.11713
3.8914
4.03318
3.91638
3.93329
3.93972
3.9933
3.92185
3.93941
3.99747
4.25736
3.96045
3.92973
4.25081
4.18263
3.90256
3.87989
4.03025
4.17848
3.98887
3.88946
6.22832
6.97512
6.33643
5.89078
6.27901
6.86163
7.48054
6.75548
6.71028
6.22471
6.52782
6.95519
6.48581
3.95977
3.94147
4.06444
3.96525
3.9098
3.99638
4.19664
4.18672
4.11207
4.07376
4.12938
4.04219
4.08055
3.81658
3.7956
3.7968
3.81246
3.81913
3.84491
3.83571
3.85975
3.79901
3.79793
3.8199
3.80099
3.80098
3.80916
3.80753
3.79061
3.78387
3.76526
3.79153
3.7791
3.78393
3.78498
3.77789
3.77538
3.76975
3.76825
3.76591
3.79475
3.78593
3.76995
3.78428
3.8391
3.82724
3.82647
3.82038
3.83114
3.82902
3.8296
3.82674
3.82279
3.82419
3.83907
3.83231
3.83594
3.84866
5.43663
5.69378
5.58829
5.15262
5.35578
5.31401
5.70631
5.30791
5.05899
5.17525
5.58048
3.89216
3.87623
3.9267
4.08356
4.28285
3.96594
4.1104
3.97783
4.09792
4.13508
3.94188
3.9513
3.99491
5.63155
5.83404
5.80371
8.36682
5.73025
5.34335
5.44389
5.48129
5.56373
5.83032
4.46821
4.98128
5.18081
4.72976
5.95297
4.31426
4.77146
4.8894
5.40482
4.59778
5.0782
4.74573
3.93079
3.96883
3.93083
3.91316
3.93726
3.91332
4.04857
4.03403
4.18266
3.97103
4.11358
3.84306
3.83565
3.83249
3.84651
3.8542
3.85224
3.8527
3.88134
4.0082
4.0226
3.87197
3.86185
3.88018
3.94167
3.92051
3.90647
3.91055
3.93297
3.90685
17.1172
15.8007
19.7494
14.2105
14.5059
18.3709
19.8407
16.3796
18.5629
17.3092
14.493
18.6659
15.6285
4.3772
4.41961
4.21489
4.28796
4.25917
4.01451
3.95903
4.14986
4.13972
4.12986
4.02774
4.44829
4.34613
4.00521
4.19599
4.29258
4.69961
4.35189
4.85047
4.73148
4.207
3.78971
3.78881
3.78968
3.78849
3.79156
3.79036
3.79477
3.78614
3.76799
3.76886
3.78258
3.79982
3.77781
3.7872
3.76516
3.76701
3.79136
3.77224
4.09067
4.12787
4.09053
4.08187
4.11191
4.13211
3.92415
3.9244
4.06857
3.92966
3.90954
4.14083
3.91769
3.88909
3.89494
3.89605
3.91392
4.02818
4.00531
3.89413
4.01606
3.88499
3.89198
3.90309
4.01162
4.00059
4.00112
3.80156
3.79477
3.7934
3.80274
3.80069
6.10518
5.36071
5.98416
6.08755
5.97658
5.57188
5.73774
7.8139
9.26533
7.52665
11.0744
8.20386
6.95058
8.85807
5.6686
5.57679
5.39209
4.6931
4.8716
4.65773
4.15049
4.31135
5.07096
4.69866
4.09375
4.06119
4.73002
4.7128
4.06558
4.05122
4.11384
4.16955
4.18508
5.05616
6.30484
7.28546
6.5784
9.78537
12.9937
1.88196
6.63312
3.25358
4.36961
18.5227
31.5983
21.8053
21.7628
9.87177
4.74591
7.98206
20.1769
18.6782
6.90359
4.39309
4.17694
4.2193
4.07151
4.0387
3.99518
4.06712
3.9148
4.10662
4.07771
3.78701
3.48967
3.63108
3.67699
4.82712
4.27814
4.79745
4.6537
4.02586
4.04844
4.5958
3.88538
4.66299
4.95561
5.25666
4.59465
3.93943
3.91598
3.94866
3.9861
4.27399
4.21779
5.90657
7.16379
7.12809
7.10634
7.96786
6.33459
9.23303
5.74242
8.56869
7.57729
5.51858
5.50499
5.55513
5.82738
7.08141
5.62848
7.56189
7.04461
5.49467
5.74055
5.1645
5.48091
3.95625
3.95678
3.98047
3.9564
3.89534
3.91205
3.89088
3.83506
3.8735
3.9564
3.93232
3.85051
3.83269
3.84159
3.84552
3.92801
3.84023
3.85414
3.82685
3.84763
5.22694
5.44519
6.34429
3.96984
5.3293
4.16294
6.50866
4.73352
5.05555
3.99856
4.09451
4.86745
4.10243
4.04432
4.3645
7.10969
9.32999
8.08214
10.509
10.3183
9.77844
8.76512
7.41576
3.80491
3.90343
3.82112
3.82038
3.82038
3.83741
3.82862
3.91923
3.8187
3.7998
3.91445
3.84197
3.71309
3.72989
4.37916
3.60238
3.6559
3.78497
4.38085
3.80601
4.70044
4.73724
7.09963
4.02561
5.50627
7.09963
4.47874
3.81581
3.80749
3.7088
3.80277
3.79702
3.80741
3.79988
3.79507
3.80119
3.80647
3.83661
3.82077
3.81415
3.81761
3.8213
3.80202
3.79822
3.81288
3.81955
3.82278
3.80539
3.77601
3.7759
3.77868
3.76552
3.7866
3.77868
3.77531
3.77619
3.77605
3.76707
3.77508
3.77553
3.76095
3.77562
3.77477
3.77593
3.77536
3.775
3.77489
3.77023
3.77445
3.77502
15.8244
14.4471
16.3124
18.9285
15.1709
18.0811
15.9047
14.3465
17.0334
18.8389
18.4924
17.0392
16.7684
15.6509
17.0081
15.2555
8.84154
8.85077
8.98169
10.7311
8.73003
8.06738
6.84001
6.43407
5.50584
5.59386
5.63918
5.68298
7.14377
5.92175
6.57952
6.18113
6.93486
6.8267
3.79316
3.86534
3.8659
3.84544
3.85292
3.87292
3.87157
3.87197
3.77554
3.78409
3.84649
3.86826
3.84997
3.82685
3.80449
3.81642
3.78856
3.79369
3.79802
3.79943
3.79794
3.80173
3.80516
3.7922
3.78004
3.80045
3.77398
3.78565
3.77919
3.79085
3.80091
3.79833
3.78848
3.80483
3.79594
3.78104
8.11013
7.91375
7.01012
5.95384
4.90594
6.7443
5.62195
5.91325
6.18238
7.20785
4.9346
4.69433
5.47565
5.58543
5.11061
5.18466
3.94418
3.96562
4.02108
3.99235
3.86924
3.96073
3.84351
3.92924
3.84264
3.81188
3.83424
3.81334
3.57406
3.63939
3.78726
3.64747
3.5789
3.77762
3.7643
3.75385
3.60133
3.58434
3.79086
3.77426
3.70955
3.77855
3.75057
3.76627
3.74385
3.77484
3.7876
3.82785
3.85339
3.85884
3.83223
3.84884
3.77023
3.80013
3.77832
3.79699
3.80534
3.80435
3.82903
3.82097
3.78755
3.8062
3.82245
4.15445
4.27873
4.00789
3.899
4.5889
4.32375
4.04883
4.03609
4.3541
3.84695
3.87628
3.84014
3.86552
3.87741
3.91777
3.87185
3.90779
3.86523
4.11167
3.91
3.78937
3.79161
3.78054
3.7852
3.78462
3.78643
3.78669
3.79638
3.79263
3.80775
3.78318
3.78325
5.32575
4.83611
4.91717
5.14103
4.85101
5.09391
5.17238
5.02204
4.91665
4.95684
4.89488
4.62546
4.65106
4.61422
13.3067
13.647
17.8965
17.4851
18.3706
18.4906
13.2569
11.8221
15.4219
16.3656
13.5936
16.5845
14.4264
15.0457
3.78385
3.78579
3.78632
3.77932
3.74068
3.72857
3.76865
3.7369
3.78566
3.77323
3.77784
3.77469
3.7615
3.77352
3.77513
3.82673
4.18026
3.77159
3.56006
3.86778
4.00685
4.17258
3.72746
3.78968
3.76517
3.78975
3.80568
3.77969
3.77327
3.75319
3.75632
3.76855
4.56585
4.33347
4.0943
4.33109
4.53057
4.37738
4.41263
4.61123
4.28022
4.27464
4.1702
4.33706
4.17488
4.35334
4.19809
4.0545
4.07976
4.40037
4.11139
4.02028
4.09476
3.97359
3.83723
3.82392
3.77
3.7998
3.7952
3.7915
3.80712
3.83345
3.81982
3.82699
3.80646
3.79811
3.76079
3.76076
3.77628
3.64704
3.57929
3.71535
3.74073
3.58502
3.71412
3.64455
3.61397
3.58285
3.72857
3.66121
3.72355
3.56788
3.63401
3.62032
3.56734
3.90774
3.98248
3.8643
3.98664
3.895
4.03288
3.95579
4.05123
4.04847
4.00827
3.85643
3.99806
3.82547
3.83447
3.94271
3.91848
3.88802
3.86114
3.95823
4.01945
4.16098
3.95856
3.87034
4.04459
3.85662
3.86585
4.05598
3.86745
3.86393
3.87001
3.99202
3.91668
3.85012
3.85041
3.87576
3.92209
3.86453
3.91196
6.10727
5.86841
4.38788
4.84398
6.68593
5.60861
4.69203
5.95854
4.25104
4.30028
4.22903
6.10136
7.82132
7.4172
7.46469
7.51954
7.64813
7.47045
8.0188
7.87056
7.35695
7.36713
7.02728
7.13398
6.97159
7.96426
7.68424
3.78834
3.78256
3.78555
3.78101
3.80073
3.79662
3.793
3.79794
3.79697
3.78325
3.78877
3.78407
3.78098
3.79202
3.79232
3.78656
3.82853
3.82616
3.86966
3.84006
3.83471
3.89731
3.89776
4.0349
3.9719
3.91659
3.94137
3.93362
3.97482
5.83399
5.24375
5.31484
5.0311
5.48418
6.57883
5.10626
5.18255
5.04749
5.05731
5.56836
6.92804
5.30733
11.8216
12.4646
12.4187
10.9333
11.4354
11.0395
10.2118
8.19839
8.61899
13.5886
12.4487
13.18
12.8968
8.52589
8.51755
11.3266
10.1313
8.74214
9.24669
11.5702
3.8853
3.83027
3.8637
3.90106
3.8116
3.90054
4.01337
3.83364
3.84694
3.65359
4.02423
3.64279
3.74384
3.94637
3.71586
3.83869
3.76663
3.76865
3.47857
3.06333
3.61445
3.62798
3.63944
3.67667
3.76679
3.71216
3.69137
3.6766
3.7598
3.67499
3.66355
3.73726
5.67931
5.62545
4.16074
4.15076
5.94108
5.62074
5.56161
4.57393
4.78312
4.70321
4.33919
4.45172
5.99113
5.64843
5.93363
5.79107
7.64954
6.63145
5.76407
5.62801
21.8357
3.27856
8.17192
3.29109
1.14444
3.89855
3.88208
4.08495
4.27423
3.85978
3.90998
3.87126
3.85162
4.06504
3.95041
3.91528
4.03966
3.854
3.9306
7.62891
7.74248
7.93433
12.0065
10.2643
12.0426
2.41389
4.05902
6.68798
10.0354
2.94299
3.92318
3.94384
3.89544
3.90259
3.90216
3.85784
3.89012
3.78266
3.81125
3.93433
3.87039
6.84201
6.22566
6.57123
6.43168
6.77445
6.47441
5.95642
6.54607
6.42516
6.10669
6.16979
5.9453
5.7253
5.80052
6.19336
4.72535
4.9397
4.54286
4.48887
4.78635
4.61392
4.30731
4.38334
4.3034
4.30989
4.69824
5.05887
4.46048
4.61281
4.51573
4.44338
4.90674
4.97383
4.52917
4.73129
4.59953
6.7202
6.4746
6.69242
6.26494
6.0447
5.78099
7.41908
7.80368
7.03013
6.11995
5.75398
6.57187
5.62313
7.08894
5.59504
6.76629
6.21831
8.20336
8.08385
7.87459
7.80359
8.54081
8.89171
8.38088
9.46663
9.81604
8.78503
8.27197
9.12803
8.5588
7.50272
8.17308
9.08793
7.99364
8.29542
7.71322
8.35443
4.82888
4.98489
4.79406
4.99979
4.77535
4.82448
5.03565
4.81471
4.88273
5.07846
5.22429
5.26173
5.31169
5.43045
3.75391
3.71921
3.75433
3.75106
3.78365
3.78032
3.60448
3.77287
3.77272
3.60734
3.76942
3.77975
3.77723
3.77271
3.5497
3.4926
3.73209
3.7663
3.71006
3.56256
3.94538
3.77548
3.81675
3.82626
3.89229
3.77443
3.7745
3.77355
3.77134
3.77232
3.7726
3.77336
3.77097
3.77185
3.77198
3.77344
3.77302
3.77399
3.77077
3.7719
3.53152
3.55028
3.67336
3.67724
5.67066
6.37499
3.70159
5.54445
3.65601
3.62314
3.66775
3.34374
3.50044
5.42857
5.62287
4.55329
4.88042
4.59313
6.09472
5.99778
6.15506
6.02626
6.00575
6.17075
5.95261
5.7424
6.33503
6.03634
5.92345
6.11008
5.61739
6.10104
5.60917
6.12693
5.72081
5.83939
6.47689
5.68931
6.11863
3.89606
3.94293
3.95768
3.95457
3.88237
3.98894
3.91498
3.86519
3.98265
4.01895
3.94789
3.90337
3.95393
3.9041
3.89166
3.83596
3.82261
3.78438
3.8045
3.80272
3.76341
3.8279
3.81798
3.72273
3.72863
6.70603
6.87889
7.1783
6.97953
6.4627
7.05079
7.55679
7.30755
7.32487
6.83405
6.66062
6.95259
5.98148
6.26914
6.78023
6.18951
5.3364
5.62053
6.08259
5.03411
5.77138
6.78735
6.44879
7.24841
5.92618
6.09542
5.32637
5.70323
5.08719
5.79878
5.87163
6.68225
3.73851
3.612
3.65797
3.68063
3.77155
3.74451
3.77463
3.77712
3.73505
3.71056
3.58061
3.76611
3.77352
3.77625
3.75655
44.3261
15.0142
20.9595
10.039
17.8903
35.7629
31.7597
26.3111
12.9767
11.5581
10.039
23.6691
15.8601
14.8583
27.3249
4.00966
3.93359
3.96182
4.023
3.9329
4.00868
3.90158
3.88219
3.94802
4.01288
3.99456
4.00127
3.92985
4.10191
4.01871
3.8705
3.88455
3.92118
4.04059
3.84649
3.83339
3.95049
3.99348
3.95731
3.91991
3.89329
3.89118
4.01259
3.93248
16.7277
13.2179
21.0366
39.0628
24.0951
19.4418
16.5569
33.1291
19.5705
3.80574
3.79835
3.81956
3.80979
3.80225
3.81172
3.7691
3.92717
3.92699
4.03291
4.01733
3.88716
3.90471
3.98096
3.83287
3.92401
3.92947
3.84216
59.7767
66.9507
81.1568
38.2152
64.7934
75.0825
105.35
101.138
45.0826
89.1227
60.3072
61.1967
85.1145
88.1013
122.341
124.519
212.202
76.5927
92.2333
122.495
204.111
62.2228
65.9204
62.0292
81.1254
63.6794
121.402
46.9803
46.1192
82.0663
62.5255
4.41663
3.19138
2.21608
17.0876
3.99555
17.0876
2.32947
3.5861
8.9743
3.51041
9.42883
9.31699
10.5295
9.55054
10.1566
8.93197
8.39408
9.74578
10.5895
9.7064
10.5814
10.4379
9.86355
10.3029
9.89446
14.9589
15.0142
15.2417
13.944
16.9699
17.1599
14.4251
13.1969
17.1536
14.7836
15.3949
11.6114
12.6471
10.7844
13.7028
9.11541
14.9609
13.0998
8.56688
24.9358
23.4764
32.8715
28.7049
28.0421
26.8786
28.3111
34.7059
37.1006
35.9957
36.8201
41.8266
45.22
8.38055
7.46336
12.8754
15.5258
7.94703
8.3923
14.7157
11.4414
7.45916
7.25021
11.8726
8.49487
8.03279
8.25153
9.65008
14.1165
16.176
19.6241
15.4222
19.0722
16.3904
10.4482
22.8551
13.1767
22.5296
23.2174
22.4188
28.2481
24.9039
9.45033
8.58901
20.683
26.5386
28.2307
20.7134
3.88681
3.83453
3.85566
3.80275
3.87648
3.82512
3.82516
3.81506
3.81293
3.80364
3.71501
3.63123
3.83512
3.82418
3.84244
3.83516
3.77787
3.73023
3.7641
3.72139
3.77966
3.78083
7.22505
6.83252
7.20053
6.62185
7.07357
7.31102
7.82889
7.68012
7.31415
6.98012
7.05037
7.66862
7.17409
7.8274
7.481
7.43781
7.10172
3.9519
4.00007
4.18881
4.2019
4.05701
4.00027
3.95956
3.98485
4.25591
4.52187
4.86358
4.70177
5.24465
3.77438
4.12826
4.25262
4.14995
4.37312
4.1337
11.9633
10.1369
6.44152
6.60167
6.27074