/*--------------------------------*- C++ -*----------------------------------*\
  =========                 |
  \\      /  F ield         | OpenFOAM: The Open Source CFD Toolbox
   \\    /   O peration     | Website:  https://openfoam.org
    \\  /    A nd           | Version:  10
     \\/     M anipulation  |
\*---------------------------------------------------------------------------*/
FoamFile
{
    format      ascii;
    class       volScalarField;
    location    "2";
    object      p;
}
// * * * * * * * * * * * * * * * * * * * * * * * * * * * * * * * * * * * * * //

dimensions      [0 2 -2 0 0 0 0];

internalField   nonuniform List<scalar> 
75457
(
-46.1923
-41.0449
-37.38
-33.7384
-26.7057
-29.9492
-40.7767
-41.6128
-27.4407
-20.8358
-25.0405
-27.9575
-27.9475
-24.5383
-1.66344
-2.16777
-2.65337
-2.04873
-2.66714
-2.53007
-1.83067
-2.65464
-2.14253
-2.42586
-2.56153
-2.93481
-2.45198
0.286131
0.263792
0.54818
0.469117
0.612802
0.364126
0.301274
0.455185
0.248918
0.270777
0.33986
0.026567
0.206061
0.0770487
0.212686
0.159409
-9.25874
-7.85043
-8.01266
-8.38289
-9.01934
-4.17962
-4.92787
-5.2101
-4.67074
-4.47091
-4.69529
-5.23766
-5.27732
-4.86252
-5.13252
-4.63811
-4.80713
-4.65303
-4.55979
26.2461
26.5331
26.2876
26.6176
26.8841
26.8894
26.5368
26.5812
26.8713
26.6506
26.3533
26.6526
26.6362
26.3057
26.5312
-6.60183
-6.8619
-7.09218
-6.89548
-10.9365
-4.45755
-4.52059
-9.09899
-8.49812
-10.0952
-8.84131
-1.10104
-5.68352
-3.88033
-4.49332
-7.32025
-6.93478
-6.58559
-6.65726
-6.67986
-6.79611
-6.77094
-6.53259
-7.19566
-6.80013
27.1929
27.083
27.3426
27.3587
27.2255
27.077
26.9974
27.4467
27.4488
27.0638
27.0744
17.6951
18.366
20.8167
20.3984
17.7405
19.3612
19.3934
18.8219
19.2008
20.9092
20.6935
21.2293
21.7642
20.5232
19.9357
18.7261
21.1796
20.1596
10.1085
10.064
9.60663
10.3649
10.016
11.3134
11.0707
10.9686
11.0192
5.31436
4.96816
5.40644
5.02735
4.58296
4.95963
4.97431
4.23229
-6.43108
-6.37539
-5.91084
-5.97162
-6.34582
-6.07619
-5.92329
-5.48313
-4.14711
-4.33826
-5.30614
-5.08044
-4.84959
-5.24611
-4.35792
12.1247
13.712
13.9624
13.3125
13.7407
10.0461
11.4558
12.9941
11.975
12.9727
10.3388
8.99474
9.6163
-8.91014
-9.3531
-9.163
-9.37788
-9.15585
-9.27702
-8.77837
-9.47239
-9.34085
-9.52092
-9.47273
-9.42316
-9.2838
-9.33712
-9.5581
-8.17361
-10.34
-8.72327
-8.61493
-10.0551
7.35576
8.01972
6.66553
7.59267
5.91209
6.60796
8.94656
8.61666
7.86731
5.34249
5.23171
-7.47615
-7.32327
-7.54707
-7.4748
-7.6044
-7.6488
-7.32074
-7.19576
-6.6724
-7.63558
-7.43653
-7.0927
-7.53464
-6.88623
3.83562
3.06952
3.37315
1.97299
2.45052
2.89988
2.66868
3.79616
3.43515
2.79581
2.21401
1.75712
3.5798
2.17953
-6.52294
-6.54926
-5.99714
-5.96324
-6.28618
-6.13393
-6.57004
-6.2287
-6.66803
-5.98335
-6.11318
-5.75369
-6.26496
-6.60212
-6.30649
-6.17891
-6.24002
-12.7567
-12.7181
-12.289
-12.262
-13.7268
-12.1369
-12.6401
-11.9387
-11.7556
-12.8464
-11.5393
-12.7059
-4.65328
-4.663
-4.93992
-4.90061
-4.13537
-2.96633
-3.42745
-3.39665
-2.96585
-3.32891
-4.14
-3.9604
-3.43027
-2.88402
-2.89607
-2.95677
-2.76293
-2.79209
-2.64259
-2.59012
-2.53234
-2.58648
-2.75652
-2.90821
-2.81717
-2.48947
-2.7163
-2.68529
-0.101161
-0.156147
-0.138185
-0.088274
-0.117891
0.176184
-0.117114
0.0107313
0.119122
-0.00766654
0.365712
0.44435
0.410714
0.959139
1.1893
0.983386
0.894098
0.634356
0.700995
0.664905
-0.0191662
0.280876
-3.22894
-4.42211
2.92582
0.600944
-0.587481
-3.31284
-5.13232
-0.366542
-5.03953
-5.88076
-2.51836
-5.34855
-5.39014
-5.33325
-5.2632
-5.37126
-5.36482
-5.36691
-5.05429
-5.44021
-5.38632
-5.39133
-4.90429
-5.17448
-5.37349
-5.17938
-5.31911
-5.30002
2.63486
2.21085
1.8978
1.13599
-3.10341
-1.7709
-2.25324
0.40826
0.746705
1.1971
-0.766429
-1.8645
-2.48664
-3.07862
-3.00961
-2.5355
-2.69134
-2.10223
-2.74144
-3.07524
-2.34665
-2.54173
-0.0975863
-0.0826229
-0.172274
-0.22823
-0.116142
-0.105336
-0.151702
-0.0576408
-0.189349
-0.20099
-0.266694
-0.119925
-0.175611
-0.349359
-0.323011
-5.72764
-2.11651
-6.97495
-5.23661
-5.17757
-6.26991
-6.70779
-6.53754
-6.87329
-6.83979
-6.53372
-7.18004
45.0054
49.7883
38.4966
41.1037
43.8554
45.8629
45.5802
48.4087
40.992
45.3483
43.6897
44.6586
40.7306
45.1329
39.5492
40.9586
42.8687
37.9835
29.933
29.468
30.1735
30.8987
31.7643
32.7077
30.1584
30.7794
33.2037
36.5657
33.3568
33.6193
35.3028
21.2604
18.5636
16.1775
17.7833
22.1508
18.9334
17.5695
18.9858
18.5202
16.6878
23.7979
23.7919
17.1875
18.7215
16.1562
22.181
24.2409
24.3209
20.4044
20.4431
20.9904
22.3462
-9.77031
-10.23
-10.5284
-10.2893
-10.3813
-9.88054
-10.1293
-10.1418
-9.96595
-9.80326
-10.4763
-10.0525
-10.3204
-9.93487
-10.4748
-10.0397
-37.9153
-43.1543
-24.1898
-29.5833
-22.7851
-31.6496
-28.8487
-26.9283
-22.5325
-28.9599
-49.277
-43.1803
-26.6351
-37.356
-24.2045
-24.4173
0.774969
0.668914
0.825338
1.47141
1.65054
2.22393
0.437767
0.206833
1.60236
1.62163
2.27944
1.9439
1.84469
1.72624
1.50995
0.93576
0.401427
0.984471
29.0875
33.1678
31.7553
28.3127
29.6305
32.3907
35.8205
34.9218
29.9667
35.821
37.5316
35.788
31.9869
28.7665
29.5601
30.5197
22.3381
21.7211
22.2269
21.975
21.1861
22.9077
23.4625
22.8614
22.2271
23.1956
22.6489
21.8249
22.6543
21.1328
21.7989
23.3139
23.7723
8.73568
8.57694
8.31648
8.68829
8.73707
8.81847
8.8349
8.84622
8.86581
8.71035
8.42056
8.61946
9.00929
8.70107
8.84716
8.13802
8.12975
-1.63151
-2.83191
-4.37417
-3.61471
-2.75307
-1.84927
-1.88278
-1.62678
-3.52686
-3.49976
-5.15942
-4.61229
-2.92555
-3.92353
-5.85513
-3.56763
-2.623
-4.13332
-1.69091
-1.97985
-1.64647
-1.66074
-1.18336
-1.29819
-1.39169
-1.52984
-1.14751
-1.34434
-1.30037
-1.06235
-0.90998
-1.04555
-5.03772
-4.53243
-6.4374
-6.75489
-7.29061
-7.23374
-5.51888
-4.80117
-4.71297
-7.16932
-6.98347
-6.23567
-4.98583
-4.87385
-5.13045
-5.67337
-5.81489
-6.05166
16.6443
12.4977
13.3779
20.0278
16.3688
10.5709
13.4954
13.7211
10.1653
18.5355
13.7419
10.7916
-7.94215
-7.30668
-7.08514
-6.47368
-6.56055
-8.04958
-4.68442
-5.40009
-8.00752
-6.81958
-6.98461
-6.12813
-5.90784
-7.48647
-6.81017
-7.12386
-3.25141
-3.79397
-2.71649
-2.97943
-4.16647
-4.42075
-3.0073
-1.7941
-2.38869
-2.68634
-2.24084
-4.13189
-4.04348
-2.42392
-1.98631
-3.47291
2.78849
2.16923
1.57487
4.17181
4.97332
2.94562
3.52131
0.933391
2.15891
2.73563
4.09539
3.17035
4.10312
4.75328
4.41348
1.9766
2.06369
3.1238
1.60132
-0.629106
-0.49459
-0.606991
-0.930745
-0.736537
-0.617535
-1.15875
-1.18672
-0.676144
-1.01254
-0.79497
-1.2876
-0.901982
-0.773214
0.426555
0.313032
0.0473576
0.135057
0.0123176
0.114041
-0.023924
0.0712405
0.0765276
-0.0669607
-0.143071
0.129324
-0.0145162
-0.0418228
0.142036
-0.0658306
0.0284464
-0.0311642
-3.73608
-5.13615
-3.8414
-2.52135
-3.27418
-6.7909
-4.12614
-3.61206
-3.73442
-4.15074
-5.87354
-7.15166
-7.01415
-8.9234
-9.08495
-10.2915
-11.2989
-10.0549
-13.2044
-6.41573
-6.43792
-9.98339
-12.2449
-11.6547
-10.6234
-11.9116
-11.917
-11.2554
-8.6998
-9.72275
-10.5329
-8.76279
-9.72519
-9.87328
-9.2275
-9.55657
-9.1462
-9.85852
-9.69571
-9.47072
-9.21663
-9.22085
-9.62652
-9.35204
-9.61021
-9.07202
-9.42284
-9.57662
-9.15948
-9.31045
-8.64507
-11.6289
-15.4152
-9.81988
-9.61994
-14.2554
-15.6839
-11.0175
-14.3763
-12.6638
-0.209941
0.0024088
0.634424
2.31049
1.79005
2.08659
2.55337
3.64002
1.94038
1.25388
2.5893
1.44958
4.27484
-1.21771
-1.07541
-1.14954
-1.25627
-1.17602
-0.940155
-1.05948
-0.928581
-1.3381
-1.31448
-0.904307
-0.904114
-1.20592
-0.754688
-1.1889
-1.06326
-0.843125
-1.05377
-0.870804
-1.09258
-1.16966
-0.855429
-4.26147
-4.27217
-4.50445
-4.33686
-4.05223
-3.04236
-3.88271
-3.38385
-3.3647
-2.75166
-2.95103
-3.1742
-3.55838
-3.23115
-3.05467
-3.6007
-3.10148
-2.72921
-3.24207
-2.79825
-5.9699
-5.99076
-6.62736
-6.71488
-5.55549
-5.6309
-7.01085
-6.57102
-6.15142
-5.20108
-5.44096
-5.36005
-5.10825
-5.51661
-5.75238
-6.09236
-5.03372
-5.12032
-5.74527
-6.23495
-5.0676
-5.32584
-5.86239
-7.33663
-5.63619
-6.88652
-5.60661
-7.14271
-4.93703
-4.65172
-4.41638
-5.29485
-7.07225
-7.3578
-7.16113
-5.52342
-4.94655
-6.56013
-6.62011
-3.79949
-3.89461
-4.91374
-4.09662
-4.80967
-6.43958
-5.56736
-4.89643
-4.64944
-4.46533
-5.82488
-5.93389
-7.43044
-5.1669
17.8394
18.392
19.3127
18.2605
19.0488
17.9239
18.9188
17.7794
18.2972
19.2557
-9.18103
-9.10595
-8.47984
-8.42792
-9.47986
-9.22938
-8.58861
-8.82146
-9.17796
-8.35547
-8.88227
-8.53602
-8.42191
-9.20473
-8.50544
-8.90855
-9.30104
-12.3682
-12.0472
-13.2402
-12.8714
-12.7056
-13.3243
-11.4922
-11.3573
-11.5121
-11.4158
-13.2908
-13.4213
-10.9303
-12.2518
-11.974
-12.1166
-12.1752
-13.2427
-11.6797
-11.9691
8.15963
8.55898
9.22509
8.71173
8.23815
9.39842
5.80707
7.40593
7.72519
7.29411
6.57686
8.79407
8.32079
8.78942
7.88512
7.45421
-13.212
-11.6476
-8.02036
-10.7167
-8.63736
-2.56439
-9.60713
-10.6638
-9.42864
-5.41334
-4.73283
-6.32568
-10.5763
-12.5383
-13.4085
-11.5768
-10.5687
-10.617
-11.5338
-11.784
-12.3422
-10.7476
-9.80119
-10.0512
-10.7394
8.7975
7.97551
7.6443
7.68151
7.73832
6.50294
6.05209
5.56927
5.69353
6.1447
6.17549
5.40073
6.85423
6.16159
7.6724
7.80531
6.13605
6.97431
6.71386
-9.17957
-9.17011
-11.3274
-11.0686
-11.609
-8.87548
-8.56807
-10.2732
-10.0729
-8.81615
-8.71385
-10.5273
-10.2744
-10.9965
-9.00675
-9.87488
-9.08249
-10.5657
-9.42352
-7.37054
-9.87427
-7.5505
-5.65139
-7.5227
-8.63516
-6.30515
-4.31842
-5.45879
-8.16891
-7.55211
-5.89266
-6.6976
-5.44768
-8.16905
-9.08309
16.9273
17.4465
16.6833
16.5541
17.5208
18.4465
18.4374
17.4875
17.3771
18.1668
18.4066
17.4779
18.4583
18.9259
19.6093
19.0448
-4.35975
-3.53179
-2.48845
-0.485514
-8.81721
-10.4236
-2.04602
-2.22128
-9.59561
-10.5261
-6.80239
-5.74541
-3.97019
-10.8377
-10.4582
-3.33322
-9.89545
-7.8076
-9.15144
-8.58971
53.6169
47.6774
43.3341
43.0065
52.0914
53.4004
46.9208
51.731
45.9106
47.8836
45.4696
45.8955
42.7363
42.6081
48.3038
16.7549
15.156
20.4416
20.8942
18.7785
16.061
21.7088
18.2267
21.2507
24.2399
22.6947
24.1292
25.9989
23.256
-13.2682
-13.7449
-13.2648
-13.9323
-12.6189
-12.7644
-11.3383
-10.3423
-12.0776
-11.969
-10.5761
-10.1966
-12.6403
-11.2936
-10.7046
-11.3322
-3.51643
-3.23555
-3.21544
-3.28649
-3.22922
-3.51233
-3.34005
-3.49645
-3.5988
-3.01148
-3.06153
-3.00919
-3.47163
-3.65096
-3.02555
-3.41583
-3.36363
-3.59621
-3.43644
-11.3661
-11.8146
-11.7516
-12.043
-12.0361
-12.9305
-11.3015
-12.1748
-11.9754
-10.5701
-11.0488
-11.3472
-11.0522
-10.9669
-12.7032
-12.5641
-10.063
-10.5914
-10.5087
-10.4138
-9.55499
-9.68147
-10.6308
-9.97843
-9.73003
25.8203
24.9924
25.0395
25.5031
25.6786
25.2696
25.0454
25.0977
25.7854
25.5696
25.6466
25.3805
25.5107
25.2833
25.6141
25.6643
25.6515
25.4493
25.095
25.743
-6.73883
-7.42387
-6.75174
-7.20786
-6.74319
-6.52625
-6.58175
-7.28418
-6.45721
-6.6233
-6.79443
-6.96815
-2.68701
-2.60815
-2.32485
-2.19202
-2.11589
-2.67223
-2.69687
-2.8487
-2.5985
-2.23063
-2.22569
-2.35916
-2.5139
-2.12966
-2.21209
-2.39207
-2.34586
-2.35695
-1.90037
-1.81592
-1.97965
-1.75146
-1.83616
-2.11944
-2.1446
-2.37227
-2.37196
-1.76925
-2.11212
-1.87144
-2.36333
-2.28863
-1.96985
-1.80065
-2.42592
-2.1749
-1.79588
-1.03846
-1.02734
-1.18726
-0.602877
-0.782343
-0.662187
-0.62889
-1.19826
-0.838261
-1.05941
-0.943431
-0.426512
-0.382201
-0.670937
-1.23824
-1.14446
-6.91331
-6.20819
-7.42219
-6.99311
-5.25053
-5.07906
-5.89679
-7.00562
-7.60873
-9.66621
-9.47657
-9.54732
-9.81246
-9.72536
-9.8085
-9.64223
-9.87382
-9.79306
-9.80605
-9.88798
-9.93691
-2.12162
-1.8972
-2.03871
-2.06457
-2.02672
-2.15548
-2.20772
-2.21597
-2.2729
-2.03193
-2.48296
-2.43721
-2.43561
-2.52132
-2.40229
-2.39289
25.9036
26.0491
25.8805
25.6479
25.2564
25.2261
24.8882
24.7968
25.0726
25.6023
-5.08292
-5.03816
-4.99132
-4.88977
-5.14933
-5.16195
-5.16575
-5.1399
-5.50868
-5.32441
-5.41728
-5.25272
-5.35667
-5.49047
-5.56898
-5.48882
-5.46628
-5.24385
-3.38921
-3.74445
-3.40701
-3.5175
-3.51313
-3.45736
-3.66169
-3.45152
-3.57323
-3.78592
-3.55633
-3.84837
-3.69352
-3.80175
-3.44762
-3.73491
-3.76144
-3.68602
5.99572
5.51829
4.98334
5.78596
4.1349
3.70932
6.31162
5.8379
4.78166
5.97439
5.09678
4.42174
5.04611
5.03853
26.1864
26.0902
25.9614
25.798
26.2398
25.8304
25.6557
25.689
25.9924
25.8088
25.9941
26.1151
25.683
25.6544
25.5465
25.5869
25.9606
25.7609
25.9102
25.6791
43.7996
41.9797
34.1534
37.9777
28.61
32.0142
20.502
34.1579
33.0284
30.7302
35.7843
29.0567
40.3707
44.9958
41.0199
48.8281
28.8506
40.3322
36.3171
-11.5261
-12.8592
-8.13532
-7.452
-10.0541
-13.1803
-14.5499
-16.8761
-7.785
-7.50169
-20.5992
-17.9005
-11.0702
-12.6117
-15.4752
-10.1702
-11.0166
-18.6034
-14.0831
-14.7493
-0.110655
-0.277935
-0.134741
-0.198244
-0.291694
-0.156132
-0.495411
0.0403459
-0.38126
-0.414544
-0.220466
-0.353098
-0.302902
-0.0905209
-0.3114
-0.56285
-0.436909
-0.424623
-0.0823214
3.08447
2.29823
-13.7782
-16.0135
-1.98625
-0.391081
0.148904
-2.84403
-10.4183
-3.67261
-6.90694
-3.80664
-9.80763
-9.48406
-12.3312
-11.8326
27.988
27.9399
27.8112
27.8856
28.1526
28.1696
28.0509
28.08
27.8948
27.7607
28.2688
28.0512
28.2114
28.2055
27.8363
27.7635
27.9284
28.0955
28.2226
27.8258
-0.09706
-0.194959
0.237904
0.547491
-1.63074
-1.86411
-2.10333
-2.80391
-1.22718
-0.162437
0.02086
-1.84551
-2.11762
-2.63416
-3.14573
-3.14661
-1.2345
-2.71919
-2.50351
-1.62952
28.1295
28.0108
28.0928
28.1346
28.1236
28.1464
28.0713
28.1975
28.2614
28.272
28.3394
28.0485
28.2124
28.1881
28.2935
28.2774
28.162
-4.11916
-4.03182
-4.19246
-4.41552
-4.28539
-4.04697
-3.84909
-4.2031
-4.27799
-4.36164
-3.92547
-3.63155
26.1859
26.0095
26.5506
26.5543
26.3116
26.2598
25.9199
26.1295
26.357
26.5144
26.5538
26.1903
26.0225
26.1389
25.9438
26.139
25.9393
26.2005
26.2671
25.9333
26.172
19.9168
19.4991
19.5879
19.9808
20.0229
19.2514
19.6158
21.1628
21.3187
21.1178
20.4545
20.1368
19.7819
19.7177
19.7596
20.3953
20.2914
20.2914
5.40989
5.76866
5.72777
5.15329
5.56455
6.25949
5.83723
5.69197
5.67829
6.76946
6.43058
6.74112
6.53662
5.69647
5.36965
46.1013
40.9838
35.1136
36.5353
42.9262
41.0233
52.5249
37.8173
44.7078
39.5908
52.0995
51.8917
47.5978
40.819
-2.10785
-1.98823
-2.11681
-2.34071
-2.47598
-2.41848
-2.19817
-2.33636
-2.08029
-2.06528
-2.2968
-2.41514
-2.30014
-1.86152
-1.91158
-2.05519
21.7287
19.6876
21.3372
19.5346
19.1765
19.552
19.843
19.9047
20.7629
21.1371
23.617
23.1115
22.1163
24.4999
25.0723
22.4899
23.4886
27.3741
27.3311
26.9339
27.034
27.1322
27.1894
27.4042
27.4428
26.8982
27.0157
27.3543
27.3793
27.3369
27.2135
27.1711
27.3347
27.1404
-18.6418
-16.2124
-15.5975
-20.6459
-15.8322
-20.3435
-27.735
-14.7877
-17.7266
-17.3623
-16.6403
-19.6351
-21.9925
-16.3188
-13.767
-14.6912
-8.8129
-8.57821
14.9997
14.7011
16.1472
15.8263
15.1603
14.0405
14.3768
15.7984
16.2675
15.9058
15.6656
15.9417
14.4132
14.1676
13.5946
15.2477
14.2011
14.748
13.8649
15.2317
14.5563
14.336
-0.452265
-1.35691
-1.17623
-0.645267
-0.0962436
-0.574575
0.334855
0.411001
0.365632
-0.624886
-0.176012
0.314769
0.885675
1.08347
0.561918
0.577876
-3.17645
-3.55487
-2.92745
-3.04111
-3.44614
-3.2029
-3.06481
-3.38593
-3.58218
-3.47522
-3.49786
-2.91309
-2.94587
-2.81509
-3.02317
-2.98595
-3.51318
-3.55118
-3.45213
-3.20239
-2.92274
-3.24548
-3.11956
-3.24093
-3.27488
-3.33273
-3.44613
-3.55115
-3.22993
-3.54091
-3.04456
-3.29412
-2.99521
-3.46106
-2.90981
-3.01496
-2.90952
-3.44414
-3.02491
-2.98175
-3.39989
2.0003
2.6521
1.94424
-0.697326
1.99917
5.39203
-1.79761
-0.608743
5.09807
2.9188
6.4674
0.430929
4.13807
1.45995
2.65504
-0.133022
-0.470806
0.208222
1.75335
3.49528
3.26691
5.6354
4.83597
3.51739
2.97007
3.36782
3.81606
5.16175
5.10958
4.24735
3.71267
3.01831
3.34036
3.38349
3.25247
4.01131
3.8895
4.65242
3.79578
3.20225
3.68949
-7.13481
-6.84116
-6.82503
-7.10938
-7.13733
-7.17804
-7.33951
-7.51488
-6.97946
-7.51125
-7.25877
-6.98471
-7.13929
-6.99078
-7.12428
-7.06101
-7.11682
-3.18723
-3.28219
-3.91418
-3.82844
-3.55363
-3.80691
-3.86222
-3.72018
-3.2991
-3.81243
-3.45186
-3.79473
-3.52059
-3.6162
-1.35512
-1.46356
-1.59581
-1.70398
-2.4
-2.5892
-1.36983
-2.34888
-2.90381
-3.40218
-3.40431
-1.93973
-2.01477
-2.91414
-3.07605
-1.75488
-2.06538
0.0168147
0.0141566
-0.0349642
-8.05129e-06
-0.0135232
-0.0227249
-0.0392735
0.00605905
0.0163614
0.00597068
-0.0365457
-0.0625759
-0.129553
-0.0959749
-0.0351619
-0.0529021
-0.0879542
-0.0727565
-0.0712216
-0.133284
-0.0644916
-0.0402612
-0.046377
0.059212
-0.0282615
-0.0657187
0.0935919
-0.0825344
-0.0624809
0.147816
0.0455764
-0.0617992
-0.00162033
-0.00120561
-0.105363
0.0218375
-0.0261994
-0.0690697
0.0346969
-0.103155
-14.4511
-17.6907
-19.7213
-20.9215
-22.3614
-23.8699
-15.593
-19.3895
-20.2208
-14.2087
-15.7013
-16.7639
-22.5587
-21.029
-22.7442
-20.7602
-18.6947
-0.360486
-0.447411
-0.74082
0.254382
-0.332138
-0.990758
-1.19985
0.268226
-0.0116069
-0.70135
-7.26325
-7.05067
-7.18679
-7.37144
-6.30854
-6.29305
-7.43686
-7.4522
-7.21166
-7.31629
-6.61347
-6.3073
-6.55627
-6.78483
-6.84182
-7.18103
-6.76277
-6.94634
-5.19765
-5.31682
-5.35949
-5.31308
-5.22238
-5.15982
-5.39753
-5.13863
-4.71778
-4.87405
-5.31677
-5.19128
-5.04063
-0.142468
-0.0688812
-0.181973
-0.109026
-0.180049
-0.0862894
-0.0389902
0.00143977
0.123325
0.0435265
-0.00648698
0.0349168
-0.00260591
0.177523
-6.2816
-6.22501
-6.64839
-6.6323
-6.11451
-6.80209
-7.01404
-6.21084
-6.12369
-6.6378
-6.35475
-6.66766
-6.69612
-6.482
-6.83346
-23.3708
-22.0613
-20.4524
-24.9719
-24.5706
-23.2972
-29.5277
-35.0889
-27.6346
-26.0174
-27.9242
-33.796
-24.2919
-27.5073
-29.4053
-26.8522
-29.1485
-30.8317
27.0599
27.057
27.3105
26.6668
26.7798
26.7443
26.85
26.6727
26.9889
26.9658
-7.84131
-7.98808
-7.96102
-8.16677
-7.90372
-8.1257
-7.82144
-7.93752
-7.81073
-7.82546
-7.85132
-7.96076
-8.13593
-8.02923
-8.09206
-7.8926
-7.96489
-7.96901
-7.87696
-8.05763
-8.11991
-7.9872
2.35406
2.10911
2.46386
2.43656
1.93659
2.65211
2.10479
1.26912
2.12268
2.45859
1.49606
2.21316
2.15971
1.84387
1.81746
2.15144
2.27429
1.41073
28.7581
29.7226
30.9783
29.6814
28.2792
30.734
28.9191
29.8631
26.208
28.0687
29.6268
26.8325
27.1513
25.9173
24.6589
27.7458
25.5781
24.4531
25.5158
34.3659
33.2758
31.0834
29.6099
34.5652
37.843
36.4678
37.2176
44.7304
41.7701
37.7676
42.6151
32.3623
34.84
44.421
47.4557
39.666
45.5214
27.9902
28.1035
28.1567
27.97
28.078
27.9712
28.1462
28.0913
27.9399
28.0731
27.8853
27.92
28.1417
28.0781
28.0831
28.1437
27.5092
23.4092
22.9922
25.2793
26.3806
28.1997
26.2008
26.2879
22.6819
22.029
26.5766
24.4895
26.0024
23.2574
25.2761
23.108
22.8458
24.0665
24.6146
23.5697
24.2028
25.2905
25.1461
24.4495
23.7444
25.3043
25.6908
25.1946
20.1971
19.7526
21.9742
23.3181
11.6668
10.6908
20.5877
20.4356
11.4131
13.6403
16.0501
16.0579
17.6917
15.2081
12.8934
10.771
25.9662
25.1431
25.4942
26.0022
25.2205
26.5201
26.1273
25.3408
25.3585
28.1546
27.7262
27.4093
26.8686
25.7725
26.8956
26.3409
27.3704
26.7668
26.128
27.6525
9.58904
11.3052
6.09259
3.61661
4.47385
6.23977
15.1255
5.54558
8.86896
8.60214
3.66365
8.2461
8.20838
5.98495
9.55066
14.4992
13.6336
12.9071
11.0195
9.20876
17.2975
14.4097
15.0823
12.9277
15.8751
15.1953
15.4797
14.5047
12.8522
13.9873
13.2437
14.2286
14.2493
27.2213
27.2728
27.0674
26.9661
27.6417
27.6179
27.1584
27.0055
27.7955
27.7973
27.2216
27.5077
27.7722
27.7391
27.6312
-9.09485
-8.49486
-9.41514
-10.3852
-11.0878
-8.66829
-8.6369
-10.66
-11.6919
29.6523
28.7833
27.7844
27.7288
28.4488
27.8287
30.049
27.5236
31.2469
29.8017
27.6191
29.439
30.0748
30.4776
30.9114
26.7302
27.0134
28.787
30.9684
29.6429
27.224
28.0842
3
3.70986
3.02999
1.31646
2.37763
3.19698
0.0848104
1.54945
1.67206
-0.0326855
0.729342
-0.966104
-0.40213
-0.979402
-1.45433
-0.5109
0.531589
1.8667
-1.94964
0.935159
25.9569
24.312
28.9619
24.5315
26.3724
32.8322
30.1397
26.3482
30.0506
25.6211
28.0396
33.8073
31.6177
32.3621
35.7852
29.1626
28.4947
26.8005
31.2565
25.2535
28.4298
26.1978
29.9895
34.3897
35.2834
33.3731
-2.96859
-3.50174
-2.60223
-2.70822
-3.41887
-3.45674
-3.85081
-3.58496
-3.23239
-3.3922
-3.21003
-3.03511
-2.55493
-3.35919
-3.29832
-2.95827
-2.85233
-3.08229
-3.78472
-3.32459
-3.46399
-3.33421
-3.11724
-2.73679
-3.09333
-2.91624
-3.31497
-2.43782
-2.91613
-2.85466
-3.31146
-3.66664
-3.49612
-0.308207
-2.36003
0.649639
-1.76753
-2.30479
-0.976589
-3.02414
-3.74042
-3.62302
-2.90902
-2.67869
8.59225
8.07832
4.76673
6.67466
5.41525
3.49402
0.161062
4.96189
5.25369
2.66737
-1.95182
1.70169
3.20558
23.3985
24.1877
24.505
23.1763
24.8063
24.5944
24.983
24.1353
24.2735
23.2983
23.4553
25.3099
24.6973
-12.1459
-12.4785
-13.8967
-13.0712
-12.7308
-14.7849
-16.5937
-15.2959
-17.4058
-13.9459
-13.8121
-13.7175
-15.2853
-10.4783
-8.25133
-7.88587
-8.48891
-8.4771
-9.75993
-9.70925
-9.63209
-7.66709
-7.8502
-8.61882
-7.60298
-7.12244
-6.93251
-7.36311
-4.90289
-4.68058
-4.38417
-4.18246
-3.59853
-4.50553
-4.04868
-4.35486
-3.75025
-4.00957
-3.50682
-3.95978
-3.52331
-3.95808
-3.33499
-3.31563
-8.03094
-7.6803
-7.59977
-7.41672
-7.57247
-7.37598
-7.44451
-8.07118
-7.52047
-7.11472
-7.84196
-8.1014
-7.76314
-8.42115
-1.40695
-2.29418
-3.59921
-0.835496
-3.86743
-2.69092
-2.85778
-1.66367
-1.24676
-1.60393
-1.7425
20.9774
22.501
21.6226
22.6888
21.9692
22.8373
21.9857
21.2646
22.3527
21.4916
22.834
20.7042
22.1947
30.4106
33.3721
35.6333
44.0078
41.7782
30.358
47.3004
46.5756
33.8016
39.4116
31.9965
34.1453
42.382
46.265
49.0323
37.4101
39.2577
36.0627
45.6841
43.6382
41.8992
38.8779
31.333
31.3854
31.2254
29.9715
29.7398
28.5471
28.9565
29.3237
28.7052
27.7093
27.7943
18.0544
17.4225
17.1543
16.7499
19.149
18.6492
17.0332
18.41
17.5876
16.7035
15.9514
16.2103
17.8753
19.2358
19.4121
16.7065
16.208
18.4079
15.6752
29.4695
29.7547
29.639
29.6385
30.3728
30.2015
29.9883
29.8248
29.8195
30.2184
30.9678
30.6782
31.1076
-10.7622
-6.61657
-3.97416
-7.61588
-6.26376
-1.63893
-1.96894
-1.92298
-0.791789
-4.90847
-2.83534
-11.0094
-14.1563
-5.00456
-2.32922
-8.28122
-6.16121
-14.253
-9.39651
-15.0682
-8.2733
-4.18489
-3.70781
-4.53516
-4.12897
-3.81636
-4.18139
-3.88188
-4.24069
-4.23917
-4.61454
-4.42786
-4.12904
-4.31906
-4.58311
-4.34159
-4.05552
-3.63471
-4.66732
-1.51723
-1.07153
-1.62103
-0.61279
-1.26452
-0.498241
-1.39738
-1.74828
0.676104
-1.47157
-0.400827
-0.436659
0.808848
1.42279
2.45455
2.2203
-0.975205
0.219525
2.38793
-0.899881
1.22452
1.68909
1.2668
-0.115212
1.73396
2.02058
2.39719
-1.52649
-1.7393
-1.99555
-2.12766
-2.26734
-8.90744
-12.1103
-7.10428
-9.85808
-12.3204
-9.01497
-11.4097
-15.8009
-17.5127
-19.089
-21.3409
-16.542
-16.4524
-18.1987
-11.431
2.02874
2.71555
1.20883
1.07241
1.75197
1.50001
0.939538
2.14694
1.51036
1.77549
1.67548
1.75126
1.4414
1.14472
1.87075
2.05518
1.37916
1.56549
12.7114
10.5753
5.73108
13.231
-1.41703
-12.0699
12.7704
2.50941
12.0764
6.06868
6.68401
-24.7706
-19.4688
-38.2247
-0.290714
-0.969742
-3.1391
-15.2412
-6.86194
-0.111086
-15.3627
-14.7007
-15.0553
-13.776
-13.8087
-13.0761
-13.1805
-12.9231
-13.9051
-13.6662
-12.3314
-12.7484
-13.2264
-12.6291
-12.389
-10.8151
-10.5355
-13.1829
-8.74953
-9.2275
-10.8071
-13.2241
-10.756
-9.7531
-12.6565
-11.3101
-7.36658
-7.94468
-7.58325
-7.52727
-8.22806
-8.29901
4.8932
4.76622
7.06616
4.47206
0.511496
5.35503
-6.82959
-7.32038
-6.66782
-7.92558
6.95142
8.29562
5.33845
5.50113
0.0487002
-2.3867
-0.0666105
-2.70717
5.13277
0.679912
3.21223
3.49618
-3.48147
-4.961
-4.98661
-4.30869
-2.00782
-1.74686
-2.8023
-0.430534
-0.403265
-3.23875
-5.14451
-2.22682
-1.24701
-0.259733
0.286468
-3.47078
-1.40486
-1.75385
-2.87011
-1.67006
10.3349
10.9993
8.05346
8.31518
11.1678
9.21005
8.67435
9.46278
9.81444
9.45786
8.43148
8.76158
9.09088
8.06266
10.7301
-11.2483
-3.0452
-5.33273
-6.14357
-9.22966
-5.73152
-2.86769
-8.51449
-3.36589
-2.35318
-4.35469
-3.85366
-3.9422
-3.80876
-3.94584
-2.77699
-4.51928
-4.19679
-3.09684
-4.31961
-6.98098
-6.56296
-5.59054
-5.75656
-6.75158
-6.53784
-6.7221
-5.88678
-6.37044
-5.50742
-5.92665
-5.23164
-6.31546
-5.96953
-6.55584
-5.86806
-5.55539
-6.03441
-8.10238
-7.89695
-8.35799
-8.21569
-7.9112
-8.23165
-8.79668
-9.9746
-9.3931
-8.9744
-8.51076
-9.09592
-9.11941
-9.9456
-9.30327
-8.53734
-8.99707
-9.59572
-0.440143
-0.38652
-0.382272
-0.549934
-0.398826
-0.52994
-0.438571
-0.458308
-0.587116
-0.620664
-0.418748
-0.705691
-0.860034
-0.919482
-0.405223
-0.514991
-0.533471
-0.519088
-0.833761
-0.804521
-0.501695
-0.566094
30.2771
29.9295
30.3901
30.0233
29.4719
30.1204
30.6323
29.5399
29.662
29.5578
28.9909
28.7004
28.9148
29.8981
29.4093
29.1725
-2.6561
-3.38791
-1.11358
-1.31737
-6.8085
-4.36757
2.64881
-0.678515
-3.03511
-6.78361
-2.70098
-1.67683
-0.652745
-3.12531
-7.71571
-0.893612
-3.51628
-7.62601
-2.03581
-0.8131
-0.728069
-1.39298
-1.70788
-1.73712
-0.816742
-0.6431
-1.44409
-1.44222
-2.11881
-1.90069
-1.96478
-2.38941
-1.69989
-2.05661
7.16732
7.73398
9.08255
7.6711
6.66786
8.36188
6.88754
8.80603
9.27357
7.59541
8.17667
8.02527
7.81242
9.09322
7.29055
5.8745
7.17421
5.87001
6.28773
7.12361
4.43904
3.17821
1.4509
1.02491
-0.664221
-1.14448
2.35152
-2.0831
8.32439
6.77369
-3.62546
2.05556
6.31473
5.1894
-0.980867
2.35746
-3.35815
-3.3222
-4.03761
-4.08524
-3.48069
-4.34231
-4.29624
-4.1322
-4.20733
-3.69032
-3.74516
-3.79308
-1.77863
-1.64025
-1.96783
-1.4273
-1.88299
-1.74471
-1.83956
-2.07428
-1.4143
-1.72491
-1.49654
-1.49546
-2.10477
-1.82391
-1.32725
-1.49892
-1.87422
-8.42954
-8.5694
-8.46839
-8.41338
-8.54149
-8.79071
-8.53433
-8.1647
-8.53953
-8.36536
-8.1595
-8.4018
-8.65679
-8.91564
-8.56466
-8.52579
-8.84094
-8.52928
-2.985
-3.65162
-3.57308
-3.36248
-4.16841
-3.87075
-3.15171
-4.16646
-5.01723
-3.16129
-3.03914
-2.95797
-3.04201
-4.02928
-3.34337
-3.11135
-3.71854
-3.48167
-4.5921
-3.82509
-6.07386
-6.00822
-3.68241
-3.79649
-5.16707
-5.01914
-4.04555
-4.36073
-5.62727
-5.49656
-4.53793
-4.34765
11.5851
11.2973
5.69562
8.55441
10.5496
11.2948
11.1588
9.93476
6.95581
9.78387
6.67137
9.2539
9.14849
7.6453
30.6178
30.2562
29.143
29.3447
29.366
29.7076
30.3708
30.0851
29.0599
29.2722
29.1534
29.8304
29.656
30.1964
-0.509534
-0.353825
-0.498705
-0.580862
-0.709276
-0.812817
-0.648282
-0.792756
-0.534075
-0.657737
-0.901261
-0.870817
-0.655601
-0.660972
-0.811543
3.27521
3.46358
5.60332
5.7336
2.97297
4.14559
4.1552
4.30256
5.49487
5.65017
2.40993
2.73582
3.12395
3.55981
4.39783
3.34857
4.15425
-6.70641
-5.20065
-2.96981
-4.50369
-7.58603
-4.50591
-2.84035
-6.19065
-5.41348
-7.83549
-4.68272
-8.33646
-7.34789
-7.42076
-3.94102
-4.67591
-6.21929
-9.05614
-7.8372
-4.76916
-6.55176
-4.15956
-7.68879
-7.90104
-7.8817
-7.47139
-7.60616
-8.24606
-7.68162
-8.12446
-8.47071
-8.41192
-8.12681
-7.9939
-8.45515
-8.56509
-8.62697
-5.33174
-5.34017
-5.23081
-5.28756
-5.05751
-5.12003
-4.70972
-5.08159
-5.02178
-4.69055
-4.69591
-5.00885
-4.90314
-4.98402
-4.60422
-4.83677
-7.5161
-8.16655
-7.85392
-8.18873
-7.59228
-8.09691
-7.33901
-7.70927
-7.86666
-7.44473
-6.63686
-6.90524
-6.41443
-6.00566
-6.47449
-7.25572
-6.82843
-6.59222
9.67239
9.76413
8.79825
8.46847
5.91626
4.11638
10.7625
10.0436
3.38374
11.0787
8.68143
7.3923
4.67834
7.37701
9.56962
10.1914
8.98503
5.22451
6.51375
5.96201
4.54986
4.58119
5.8454
6.55075
5.31676
8.175
8.04901
8.28916
6.51868
8.01472
7.0615
5.64227
24.3645
23.7522
23.0878
24.0912
25.3032
23.9967
25.5044
25.5402
24.1176
23.3817
22.4772
24.0217
22.8713
26.6437
25.6601
-2.20304
-2.18186
-1.95261
-1.92681
-2.19352
-1.47758
-1.77715
-1.60098
-2.09672
-1.94672
-2.24441
-1.83525
-1.71424
-1.04031
-1.81314
-1.71698
-5.36075
-5.15377
-4.04617
-4.75075
-3.60312
-2.47898
-0.893625
-2.2321
-3.0439
-5.14736
-1.01678
-3.56132
-5.41363
-30.3666
-23.9352
-21.9734
-16.1544
-30.4477
-35.837
-11.3154
-18.9501
-15.3274
-20.9826
-22.4182
-27.214
-24.6815
25.5158
24.3266
27.8037
26.1558
27.1474
28.0535
26.6625
24.2351
22.3825
23.0015
25.6346
26.4773
25.6277
18.5334
20.4839
26.2442
25.5713
20.1515
18.694
20.9029
5.54533
5.50633
5.7063
4.54994
5.73505
4.75841
4.37818
5.13365
5.67677
5.71618
4.80913
6.0148
5.72195
5.14207
-1.19928
-0.869515
-0.793202
-1.03344
-0.697455
-1.17256
-1.21369
-1.18485
-0.980083
-1.1133
-1.1859
-1.33132
-1.22639
-0.622083
-0.735897
-0.542726
-0.483097
-0.938225
-10.4384
-9.85977
-9.23207
-9.99682
-11.0128
-10.2961
-10.5027
-9.90218
-9.79768
-11.0908
-10.1871
-10.7398
-11.7462
-10.3999
-10.463
-10.243
-10.4982
-10.7684
-11.1516
-9.24771
-2.13292
-1.63856
-1.62074
-1.91908
-1.92962
-8.55073
-8.58712
-10.0623
-10.6197
-9.25235
-9.11708
-8.76947
-8.88045
-10.1893
-9.24628
-9.24621
-10.0029
-9.10161
-9.24514
-1.84493
-1.68112
-2.34338
-2.07877
-2.2198
-1.94971
-1.80491
-2.14143
-1.90885
-2.63603
-2.15285
9.4806
9.7866
9.84797
9.62417
9.01129
8.99228
9.29978
9.8037
10.25
10.2375
9.73461
29.871
31.1007
29.6526
29.0977
30.6287
32.6752
33.81
30.4089
30.5598
34.7457
32.3822
37.9014
31.9702
31.6302
32.4589
10.3117
9.52475
6.68985
8.05281
7.46006
8.84996
7.24211
5.78909
5.98146
7.31176
8.83229
7.89912
9.31998
6.09722
6.61886
8.0551
4.43029
4.45485
6.49617
4.01263
2.76148
22.5789
23.3148
21.9546
21.0488
22.9215
21.7558
18.4047
17.9353
16.3524
16.9121
18.023
17.2899
19.4362
20.0847
18.121
19.3556
21.4707
35.4587
37.6069
38.0449
35.5088
34.6407
36.3579
35.5837
36.2892
37.596
34.8792
38.5427
35.3627
34.3964
41.0312
39.6298
39.5054
36.2005
39.2313
40.1981
36.6448
-3.97572
-3.2075
0.514992
-0.62463
5.94284
-3.52862
-1.95107
3.32805
1.33558
3.85949
9.12392
8.52395
3.19644
6.71805
-10.2723
-10.1168
-10.1865
-10.0098
-10.1445
-10.2094
-9.74199
-10.2769
-9.94797
-9.65381
-9.89694
-9.86229
-10.0134
-9.83475
-7.59648
-7.3944
-7.43773
-7.63129
-7.26642
-7.57858
-7.25842
-7.61494
-7.41563
-7.59732
-7.43162
-0.0639931
-0.0379438
-0.0161173
-0.0699104
-0.108086
-0.0432506
-0.00112498
0.0159226
0.0174517
-0.0515018
0.00514868
-0.0311485
-0.0322806
-0.0603601
-0.097077
-4.66321
-4.8275
-4.61876
-4.65779
-4.71892
-4.9145
-4.97415
-4.7381
-4.92751
-5.41515
-5.41584
-5.32772
-5.34945
-4.94553
-4.8656
-4.73952
-4.97918
-4.90197
-6.34
-9.73532
-6.65205
-8.32261
-6.56418
-8.94895
-7.74172
-6.00687
-6.72235
-7.16756
-9.19512
-6.23868
-7.92485
-8.78187
-7.61988
-8.84974
-6.37393
-7.56344
-5.43954
-7.82011
-7.25048
35.9177
39.5456
38.0797
39.8906
35.8716
40.0793
41.0022
38.3381
42.4017
44.1044
40.5836
32.5525
33.3663
37.7878
33.1681
2.37852
2.52116
0.860468
1.28364
2.76204
1.31006
3.26315
1.75487
1.71044
1.29052
18.3844
18.3358
18.9661
18.9854