/*--------------------------------*- C++ -*----------------------------------*\
  =========                 |
  \\      /  F ield         | OpenFOAM: The Open Source CFD Toolbox
   \\    /   O peration     | Website:  https://openfoam.org
    \\  /    A nd           | Version:  10
     \\/     M anipulation  |
\*---------------------------------------------------------------------------*/
FoamFile
{
    format      ascii;
    class       surfaceScalarField;
    location    "2";
    object      phi;
}
// * * * * * * * * * * * * * * * * * * * * * * * * * * * * * * * * * * * * * //

dimensions      [0 3 -1 0 0 0 0];

internalField   nonuniform List<scalar> 
146459
(
-1.71368
2.49896
-1.11025
0.324981
0.794503
-0.957966
-1.55022
-3.22179
4.41397
1.30678
-1.03322
-1.39407
-2.3087
-0.667899
1.91677
1.05983
-0.596317
-1.71239
1.70657
-2.23475
-0.429783
6.90407
3.06991
-8.59803
-1.37596
-2.53223
3.9407
5.49559
-0.495527
-2.9028
0.720302
1.5146
-2.48343
-2.13176
3.40742
1.25359
-23.0173
41.6701
-20.9112
2.25832
-25.1547
17.1641
-15.0267
24.5566
9.04
-14.7343
-18.8622
47.882
8.68929
-32.0147
-12.5844
-20.1763
7.60603
18.3991
-5.71848
-3.6406
45.1269
21.1541
-16.8219
-1.48099
-25.1919
-30.9109
35.9265
-10.0448
11.6042
-26.7514
-34.2115
7.34491
37.3254
-7.29562
-18.4255
10.2145
5.37388
21.737
9.54085
20.7317
-3.51772
-26.7549
0.457061
21.7
-12.6163
14.6753
6.99246
-0.936005
-8.60517
7.62824
15.6522
18.3424
-15.5444
4.19439
-9.89276
20.5256
7.70966
24.8218
-14.7031
27.9073
-38.026
13.6625
2.55414
-8.79165
20.663
-11.4143
-27.0124
16.0825
-9.92686
-3.14804
9.3378
-21.4226
20.9318
14.1533
-8.44187
14.9266
29.8984
3.19354
-12.1602
9.45494
8.06006
-3.53493
-3.54295
0.518824
6.55905
-6.8043
-2.88806
6.15743
6.65993
-5.83263
-4.37026
0.520002
4.20216
1.93777
7.68633
2.82645
-9.99278
-16.512
-16.006
18.5263
13.9917
-16.2036
19.8625
-3.79147
0.132564
-4.871
-0.235262
-11.0974
-14.2989
-1.38268
-0.83047
-10.8653
-4.94908
9.95349
5.86086
-3.58486
15.8832
7.56416
-14.4919
-2.76617
13.4666
-13.6628
-5.70014
-22.2067
4.06157
14.5603
-15.4224
-7.01956
2.84865
-15.7572
-3.09742
-8.01662
9.54458
-10.4321
-19.9046
-10.1515
-8.41823
-2.32057
18.1598
-7.42099
-8.20213
-0.780616
0.564509
-11.6876
21.6299
-12.2629
-8.46301
0.676433
-0.415549
9.36139
-1.06264
1.16326
-9.46201
-5.41147
6.30985
3.13271
9.00285
-8.95356
-3.18199
-5.64146
8.77417
11.0529
0.429992
-12.5456
-0.814354
1.54186
8.27534
-0.323997
-11.3554
12.8427
1.27429
-9.79786
-13.9092
1.40719
-12.9589
0.194276
0.214369
-0.492883
0.0842374
-0.701375
1.30606
-0.410414
1.52797
-0.284585
-1.94476
0.782434
0.149166
-0.717231
1.75018
0.338324
-1.42947
0.710035
0.226557
0.89491
-0.796415
0.79943
-0.129266
-0.879672
0.209508
-0.130377
0.175527
0.754279
2.49499
-2.90995
1.59306
0.772664
-1.15018
0.493574
1.36664
0.154102
-1.15512
-1.8042
0.908996
1.38877
0.683774
-0.0393326
-0.642244
0.835678
-0.0100085
-3.69203
9.35593
6.30384
-11.9677
-1.98647
-15.768
5.11979
12.6347
-14.8461
9.16762
-9.05796
-21.5562
-5.82535
14.818
-8.99269
-11.3574
12.8687
3.60847
7.32576
-22.1872
5.80351
-9.85701
9.01546
-6.41713
2.46287
-5.0612
-0.616154
5.58694
4.04468
0.137591
-1.26052
-5.2942
7.95824
-1.61461
-6.20604
12.1904
4.96731
-9.19948
6.44681
5.12745
-6.9093
9.37217
0.327615
6.91367
-8.5018
-9.55515
8.26815
13.2398
-8.27252
0.00436551
-6.58096
0.890456
-6.31469
12.0052
-9.01338
-4.62868
7.06111
6.05149
-7.02647
9.8874
-8.91242
0.132548
5.91894
-7.52909
-7.40996
15.8295
-0.286677
-9.29027
0.56357
-6.60136
-4.21189
-10.6609
7.3437
-10.774
1.93347
-0.0524001
-8.664
-2.05764
-7.63211
-1.71056
-4.54339
6.46882
-9.55754
5.49332
-17.0632
10.7913
-0.35345
-0.55048
9.30031
10.0209
-13.1916
-0.993418
4.40942
12.8944
-9.9194
-7.38441
10.6656
0.456432
-6.71261
4.41354
19.1464
6.54017
-12.0567
10.6424
-5.12589
-9.96018
20.9139
6.21489
4.94201
-23.1549
11.998
4.73845
-10.5803
5.22172
-10.1991
16.7096
6.9259
-15.3034
-8.33213
-5.59596
16.0765
6.22913
12.1003
-3.83214
-13.8641
9.37554
-0.419832
-2.02981
6.71594
18.7361
-2.25282
10.8558
-9.02277
10.956
3.27318
-2.12892
23.7846
-6.11261
-6.14438
-7.4523
-2.0657
15.6624
-12.3897
-8.60243
14.8478
0.0760925
-7.5284
-12.4135
0.0998596
-1.2638
-23.3655
16.0269
6.15816
-18.7035
11.2816
-7.78443
11.8769
-19.7133
-9.73442
21.6633
12.1271
-26.9263
-4.91417
2.39267
-3.01359
-17.9709
-2.38098
-12.0339
-3.39319
-5.13572
-23.4025
-13.272
-10.4602
-6.70947
11.664
-0.935622
-3.27297
-7.4554
-5.33105
0.120623
5.00312
0.207301
5.53762
-13.3806
2.51195
-9.39228
8.52351
0.989395
8.96504
-12.8197
-1.4963
4.01934
9.14095
-13.4529
4.67821
7.27837
-0.946135
-2.42954
-10.0772
7.40679
-3.33929
11.156
-3.13715
6.99272
12.6868
1.27646
10.1497
12.9474
0.165751
-5.87637
7.84441
-2.13379
-8.04936
10.794
-2.57889
1.31523
-15.241
-14.7119
-1.36349
13.1883
2.8871
11.4698
-24.8665
10.1063
16.0684
7.41859
-15.6426
-7.18533
8.16525
15.0885
0.233254
1.18399
8.71743
0.892573
11.1415
3.23074
0.0206942
16.862
-10.3396
21.5018
-6.40236
5.93538
11.1935
-10.7265
-9.02409
5.11957
-2.49784
-18.8949
6.11569
3.75508
-7.21259
-10.9638
24.1118
7.0308
-9.12381
-4.50858
-6.4552
-3.81801
1.41122
-17.0371
19.4439
21.1739
-21.6809
-3.31094
4.01251
13.8271
3.33423
16.7998
-1.92278
-13.4658
5.29991
19.1804
-7.68056
5.81991
12.3724
-14.1798
15.855
3.90602
-19.8
0.0389994
-1.96355
17.8186
-14.1457
16.1289
-1.24739
21.0905
-14.5432
19.9738
-15.4013
0.694565
5.92847
9.20992
-15.833
4.18325
6.4553
-9.94398
7.80018
6.74795
-10.3649
-2.6561
16.6327
-6.17641
11.0056
-7.73323
0.0933051
6.36199
9.30323
7.00328
-11.6425
9.11987
-4.48061
-2.44481
14.5949
-5.14682
0.181281
6.56667
0.840905
-1.47785
10.1441
6.54327
14.2426
11.7411
10.1129
-4.75168
-17.1023
-4.33365
8.76465
7.31014
5.77923
-12.2678
0.85721
17.8285
-6.41785
-6.95248
3.44928
-6.08801
11.8672
-16.8147
-5.09263
12.3516
9.55568
11.1806
-6.9341
-21.0612
15.7471
-9.01267
-15.2222
8.48775
1.77647
8.06691
5.90375
-5.80702
18.5315
-20.6984
8.32107
7.14183
1.99146
-16.039
6.90572
5.88523
11.128
-9.87143
-5.74127
-15.9281
5.72816
15.9412
-19.2381
3.31293
10.1839
-4.11051
-5.66144
-9.46617
-13.2922
-6.74644
5.36238
6.3233
-9.69422
11.2476
10.8008
0.644251
-0.316999
1.55681
-4.9118
-6.0651
9.42009
-7.92638
15.2114
-10.8112
9.21237
11.5984
-10.9365
-3.99335
6.86774
-10.0584
-1.18916
1.97632
-3.6446
-10.7029
7.22915
7.11834
-8.47601
4.83142
8.31503
-1.3096
7.27246
-14.2779
-0.160984
7.09602
-14.21
5.80438
6.21319
2.57434
-1.69151
-0.929772
-6.18995
1.07957
6.04015
-8.438
-1.18528
8.69352
13.749
-0.23888
-4.01965
-9.4905
14.025
-8.71399
-3.66931
-0.137746
-0.0890061
-5.78107
0.161963
5.70812
-8.41665
8.32765
-3.78627
-6.48644
7.27994
2.99277
7.82617
-11.6124
-8.35265
-0.0640054
11.5458
0.861369
0.508377
-12.9155
-0.130698
11.6764
0.687832
-8.17911
8.43444
0.534901
-8.46096
8.67941
-0.375671
1.2124
-7.22073
0.227255
3.40537
-5.998
-10.4195
7.57298
-12.3773
15.2239
-10.1986
-0.220871
-4.4417
16.8403
-4.82567
7.06479
-7.30472
-9.07165
9.31157
-3.6351
10.6999
5.86204
10.7955
-9.8386
-6.81894
-4.33658
7.97168
-5.09256
-10.1838
-2.91375
1.3319
6.82822
13.2704
-16.4387
-3.65995
-11.1171
13.5036
3.57096
-18.5021
-13.0591
-0.971719
-18.4544
8.96631
-0.852613
5.60118
-6.16637
1.41781
-9.25319
8.40057
-8.06611
0.234714
-5.27015
-6.03508
-2.03103
-8.39906
10.9149
2.54792
-22.716
3.34805
1.4005
-6.03357
-0.00151094
-10.5012
7.01556
-7.0111
3.05513
-10.0293
-1.95664
-5.05447
9.33329
-4.22365
-12.8818
7.77216
4.70169
2.16866
2.46294
2.76016
0.737606
-7.72141
-2.04174
4.8019
-5.65262
7.36026
-3.74939
9.25749
-14.1725
2.84526
-2.67816
3.12091
6.91751
7.14506
-0.56573
-7.14096
-3.53225
4.70579
1.75301
-2.31722
-5.00049
5.56469
-0.127234
-1.2403
3.12054
-0.922083
-1.35351
4.55799
-2.2824
-2.94541
3.49639
-1.47306
-4.97121
9.56718
-7.54139
-0.770814
-4.2004
0.43884
4.10042
-6.85647
-1.93719
-2.18935
2.77303
-1.96561
-0.098813
2.96016
-4.48693
-5.73583
5.67491
-16.7266
16.7875
-20.1392
2.80026
11.6031
-2.21349
-9.79469
-8.13104
16.3733
-10.5478
-8.03892
10.4292
-5.5156
11.4596
-4.17148
13.5953
-3.74892
9.05801
9.77995
-2.34797
-17.9798
4.26434
-15.0823
-0.685206
-0.95915
-7.17584
-17.7011
11.5788
-6.3189
6.80413
-12.064
11.8713
-0.977765
-2.09501
6.35936
-15.8427
-4.70912
8.16201
8.41846
3.43889
-0.310891
-4.45691
1.32891
-3.75412
-1.44422
8.63723
-4.06501
-2.43473
-3.17848
4.16899
1.95401
3.4375
1.69884
-7.09035
0.881748
3.30747
-2.23521
4.31925
-0.453722
-2.14139
0.160377
-1.60316
-2.92425
-0.254231
-3.3668
-14.1214
13.2507
-13.894
14.7648
2.58279
-3.79272
-12.9115
3.85349
11.74
-20.4573
4.86381
6.18499
14.1376
-16.4691
-5.06344
7.64622
13.7156
-6.55894
-0.971667
-0.454802
0.741671
13.4287
-0.0214474
14.1591
11.7185
13.7043
6.6551
-6.52616
-13.908
11.9711
8.46306
-10.8157
4.67214
-0.382555
-2.73297
-3.40362
-7.77141
-4.56129
-8.98743
7.49454
-7.20338
4.38097
-2.6335
12.5261
-11.1646
2.94274
-4.30417
-8.37977
13.8228
7.08307
-6.59097
-5.19242
-14.116
-3.63963
9.56291
-6.62017
-9.31899
-3.78891
5.90452
-9.87059
-4.00969
-10.4091
-2.19654
-5.69222
-0.0157661
7.90452
10.9575
-4.66261
-1.98616
-4.30868
-7.19635
1.9281
2.62908
2.63917
-1.92211
8.68357
-6.76146
5.25461
-7.17672
-5.74317
0.535195
17.6734
-12.4654
4.3614
-10.4752
0.370631
-11.9341
-5.29661
17.766
-9.46085
-5.40549
2.93218
12.5652
-9.99708
-14.0536
11.4855
13.7821
-6.51353
-22.0515
2.59354
1.42291
2.76364
-5.35081
1.16426
3.68425
-4.3657
2.10436
6.57315
-5.89357
-4.95953
4.27995
0.625461
5.41769
0.53
0.580557
2.80854
0.778025
3.48678
1.24845
-5.13226
-1.467
-2.93005
-0.187195
-0.487656
-3.78296
5.5008
-1.23018
-1.68432
1.97469
0.928264
0.200462
-6.26098
1.16122
-3.16301
-2.63563
-6.52265
5.37532
-5.60539
1.28544
1.25171
-6.94481
-0.807905
-0.898196
-4.81655
-5.25208
-3.64979
4.0033
-7.80744
-5.22295
5.46649
7.5639
-0.692211
-2.44405
-4.67117
8.40543
-4.16255
-4.93509
-4.55564
4.95188
8.00918
8.49194
-4.20854
-8.44596
-0.457923
4.39423
9.72096
-3.49336
-8.67165
1.45122
3.04679
10.5891
-0.170717
-7.66724
3.55953
-1.14197
-10.7338
-11.6059
6.97059
2.79513
-6.30344
1.673
5.22167
-7.77414
0.879466
-6.11466
3.86886
3.9188
-14.4796
-0.257393
7.94877
6.78826
-5.0918
-0.90523
-8.48261
8.34887
-1.38029
-3.11196
-3.85662
-5.17312
7.40732
-10.1446
4.71405
-5.21671
-10.0197
2.33178
-3.15935
6.04924
-2.72925
8.92989
8.47368
-4.35579
-5.49818
-2.04572
2.74527
-11.8567
3.94816
0.129896
7.77867
-5.49789
-7.26405
9.16767
-1.47173
-6.85693
6.55306
-2.78387
-8.12498
4.1274
0.379932
-4.99625
1.80053
3.32562
-4.73191
-5.76223
2.76857
-8.98751
-13.9912
11.6032
14.4479
-12.0599
-2.62731
-16.6347
8.01502
11.247
-25.2287
9.14539
13.456
8.34842
-12.8139
-12.1692
-9.5779
-7.30243
0.708815
-11.381
-1.26091
11.9331
-1.15422
11.0004
-9.13739
11.9901
-12.8829
-0.261399
-10.7308
9.17214
9.57366
0.83048
-1.56954
-13.2521
-15.3485
14.5773
9.91666
9.0329
-10.8464
14.7426
-12.3303
-0.867404
1.95233
-2.55828
-1.49378
16.6498
-13.2037
0.632194
-2.49816
2.37726
-0.511292
0.205483
0.426711
-1.76947
-0.268171
-0.728113
2.76576
-1.56399
-9.35111
-2.99573
7.0299
5.31693
-0.115804
-1.31504
-7.92026
4.27834
-3.19741
-2.64492
-0.879355
4.88952
-7.20346
4.32959
-0.121855
-1.14236
-6.17691
-0.252278
0.0299158
0.649074
-3.8928
-0.268536
1.91768
-4.48254
-0.819716
6.97026
3.24134
3.9134
8.05717
-14.8402
2.86968
8.25943
-11.4374
7.09134
-18.2387
-5.45489
11.048
12.6456
-15.4256
-0.0352284
-2.77792
-6.17926
-11.8381
16.6603
1.35711
8.17953
-4.73896
-9.61982
7.57381
-7.32711
7.81047
-0.205454
16.0387
-9.19299
-1.48618
-0.758207
-15.8537
10.6638
8.51348
-23.9162
14.6061
-15.7804
7.39339
-14.3055
0.452327
17.2807
-2.70986
10.2843
-4.99565
11.9921
21.1269
4.33749
3.7814
-7.07743
-5.37561
12.326
5.52383
-8.20399
-9.64581
3.63567
4.94171
3.74858
8.68186
-3.34925
-1.55122
3.37672
8.35192
-1.14872
-3.78217
8.30761
-2.64084
4.28725
-5.11619
-12.8117
6.322
7.55909
-9.48449
5.56107
9.02801
-2.11698
-1.3872
6.96294
7.00678
2.84215
1.47995
6.61907
-10.1114
-2.72238
-0.81545
-17.4999
-13.0091
-4.11241
1.95357
23.6288
-21.47
-17.4152
0.0782121
13.2246
-15.3892
-3.7034
1.67739
-1.89638
-12.8324
16.6823
-8.70798
6.88981
-7.47744
-11.4172
3.50538
11.1865
-4.57546
-14.3883
7.77728
18.2294
3.02183
-10.0647
-7.76569
13.1627
7.72396
9.75571
-6.74531
-10.7344
15.0024
-7.52118
0.242728
-19.5538
8.48722
3.30086
-6.77624
-14.2425
14.0217
-2.94345
-4.67483
-10.3238
-15.9956
-10.096
6.60839
5.91537
-2.42776
7.69584
-12.7821
-5.00973
-10.2357
13.1352
3.05318
-5.95267
11.3977
-16.3357
-5.29764
2.94278
0.0209883
8.43389
12.4068
3.67122
-13.794
14.0691
6.33334
0.0986547
-6.19683
7.61188
15.9905
-17.4877
-6.11476
14.5264
-6.81583
11.8344
-2.86584
2.00337
10.5573
-0.153896
16.1809
-4.8187
4.6283
15.41
15.2973
1.63504
12.2027
0.93025
16.4011
-1.92137
16.6344
-8.73096
-6.34841
2.76344
12.3159
-8.62948
-3.11624
3.01475
1.5194
-10.4481
0.299245
11.5191
-12.3093
2.30962
5.9235
-9.81173
0.771993
-0.17634
5.34702
6.49152
9.96794
-10.536
-5.80797
15.0629
-5.56959
-2.74031
-1.50184
3.62263
-7.7086
-1.48362
3.154
-9.97949
-1.55395
-7.60136
-4.04417
3.54475
-5.30855
-3.99072
2.85631
9.30526
-8.17085
3.57639
-3.90358
-3.66354
-2.35197
5.47442
-5.86276
-8.22223
4.00172
-6.19979
-11.1092
23.4862
-5.86253
-6.51448
3.86929
-14.6424
-0.3361
4.45579
19.4529
-20.0394
-0.661422
25.9388
-4.95413
-20.3232
5.7072
12.9896
-30.6502
11.9534
18.894
-15.0997
3.8831
17.4565
2.14663
17.7311
5.6049
-2.38825
16.2353
3.88399
14.8731
1.63264
13.8534
17.7925
-7.6161
-6.95356
30.805
21.1105
25.4019
-14.899
6.87117
-1.67825
-9.87078
4.67785
-10.2212
15.2722
1.82022
-11.8561
4.58108
-1.98215
9.25718
-4.72999
-12.0679
18.5484
-1.75049
14.4226
-6.24552
-12.9071
-1.43009
3.99662
-10.7039
4.01969
5.00596
17.9818
-18.1689
-9.68366
-9.40137
17.1619
-7.05948
4.66472
0.964669
-2.41344
-10.8916
-5.28927
-0.74991
-3.72266
-5.64366
-8.8026
-15.0059
7.62405
-2.01957
-7.24226
-11.4862
-4.39526
-6.53767
-2.48389
-10.2191
5.46072
-9.2926
3.97755
0.290296
1.78139
-7.17209
3.66692
7.48272
0.861941
0.895858
4.56048
-0.184694
-1.60721
3.47521
1.37556
-3.31244
-0.899457
7.87882
-3.66409
1.21359
7.97971
-4.62955
-0.950019
-2.40014
2.88932
7.55827
-2.46787
-1.48862
6.70259
-1.19901
5.46507
-0.45802
-12.879
-1.74669
15.0837
-8.70603
9.897
-1.64898
-13.6277
7.40069
-2.79369
9.02069
-2.01688
-0.100122
-6.58903
-3.48365
-11.4122
-10.0334
10.1023
-1.81551
-11.5444
-2.36044
11.4642
2.44063
-4.94536
-20.2267
-3.00692
0.374169
-5.76819
5.49935
10.2633
-9.99451
-18.6922
-0.143268
13.0673
-6.79895
7.81865
-14.1545
13.1348
7.39001
-19.1343
-11.7078
-2.44887
11.1497
-5.45653
-5.41705
-9.77428
0.653257
12.2773
-3.43953
-9.49101
15.5439
-3.65029
-11.2403
-4.52873
14.5699
2.2361
14.7285
-3.71333
-2.55624
10.849
-11.9431
1.60505
7.9492
-12.1105
-0.693624
-11.8318
3.31923
9.20622
-6.84239
0.487647
5.66111
-2.3676
6.37425
6.28839
6.07248
6.67892
14.1794
7.70044
-9.53492
1.44795
-5.33058
-5.11589
7.02958
4.76523
-12.5436
-3.07082
10.4986
-3.39524
21.61
0.0364175
-4.87587
-16.7705
13.2827
-0.9784
9.30567
5.19134
-11.2823
19.3737
-3.43371
17.1395
-8.11915
-5.58669
20.7639
-12.0415
-12.1561
-21.9207
28.4957
-6.53866
-5.23918
-12.9584
-3.72308
-7.4966
-1.61871
14.3066
-12.8768
4.40179
-8.18161
9.27778
16.0434
5.67296
6.90933
-15.8398
8.63601
-5.19974
-18.5337
7.89365
2.05989
-19.3011
5.44358
-11.5028
0.552852
16.6606
-16.7184
6.82795
10.4433
-16.514
14.487
27.4119
-23.6584
-21.0566
17.303
-1.7848
14.75
14.4468
-3.85693
24.2864
-9.88677
-10.5427
11.6758
-22.6944
28.4001
-17.3815
-14.9803
2.99783
14.4995
-30.4221
14.1378
6.44017
9.7328
-38.8674
-17.8973
9.35712
-12.9986
23.6412
-0.376247
12.4651
14.0567
-26.1456
-11.2352
9.21319
26.9683
-24.2328
6.9973
-24.6406
11.2657
-8.90749
50.6101
-30.9582
-4.06021
-15.5916
27.3452
33.7406
-10.4758
-22.405
29.5324
-20.4282
13.3009
-39.4158
-13.9475
50.0157
6.86187
-5.34444
-32.7183
-1.35303
12.3272
8.56948
-41.3249
-20.7145
-20.2202
26.0727
14.862
-15.6172
2.97896
-8.07622
23.5259
-29.5912
24.3618
-18.2965
25.4552
10.398
-4.23031
-29.2013
28.0871
-1.91773
-34.0501
6.37668
-24.7444
0.542296
3.9819
-23.0538
-17.3078
20.8959
4.00811
30.4332
15.9179
-29.2019
4.05516
8.91215
-1.50065
-11.4667
-12.3195
11.2907
5.08397
5.40277
-12.8375
-4.88468
-8.48794
14.3132
2.10655
-7.93178
11.0203
-16.2305
-3.27778
-4.60081
-2.79081
18.6823
-3.77783
8.08917
-1.02003
5.55497
9.77824
6.22245
11.4123
-3.90297
14.1764
-10.5512
-2.12859
5.74035
6.9394
-7.76795
1.99498
-4.77819
3.25152
-2.3083
-8.71117
1.03713
0.0858048
-1.20109
4.56865
-2.33043
5.50392
-2.29634
-4.40868
-3.73263
3.46684
4.83444
2.78208
-1.0108
-7.6099
3.20417
10.1461
-3.85863
-1.75629
0.686731
3.47047
-6.4655
4.85305
-2.87577
0.747269
-2.72454
1.28191
1.64514
1.926
3.23237
-4.84198
-3.40062
2.63704
2.04548
-3.04402
1.2428
4.17633
2.63148
-3.01964
-6.14722
3.88165
3.91072
-2.76848
8.06164
-0.975822
-8.79966
-9.48259
22.3117
-4.02943
-13.9746
-16.9016
22.0766
5.34721
7.2599
-0.0892585
-12.5179
-0.121226
-8.50621
6.0239
-8.2466
-11.9107
1.86471
23.2858
-13.2399
-0.795474
11.1965
-5.91953
15.2523
-9.45399
7.85499
-13.8638
7.70764
-15.4282
6.92514
-5.75395
-6.65769
14.2764
-8.41832
10.372
7.28155
5.36329
2.60746
-3.87104
-5.5333
6.9293
-15.6065
0.258887
7.55316
-11.6226
5.58942
-3.77681
-2.13437
0.321755
-1.38278
7.77377
-0.801567
-0.744364
2.16509
-5.54858
4.12785
1.1867
-4.47735
2.54629
7.00182
-7.96743
-2.81119
7.78412
3.89897
-2.35515
-4.50721
2.96339
2.67569
2.40997
-0.634818
-1.15813
-3.75563
-3.48926
-1.62291
-5.9318
0.0873963
12.9288
8.92413
-4.7612
-17.0917
-1.97919
6.83167
8.07633
3.83672
3.10822
10.0243
-1.51016
-4.67739
2.91983
6.49905
-14.1801
-17.327
3.89981
23.4515
-2.92913
-0.860917
-13.537
5.24964
-9.5089
7.17908
10.4465
2.96562
-6.91303
4.62336
12.6548
13.229
-12.6282
-3.52994
21.7522
-4.41292
15.7651
12.6282
0.515098
-28.9085
0.064359
22.0062
-6.30545
-34.7468
8.41206
13.1993
13.1355
1.92509
-12.3653
-24.3066
36.3635
-10.7024
-23.7361
23.6968
21.0788
36.0514
-34.1256
2.19591
24.3575
9.49806
-9.92053
13.8321
-3.8472
8.21807
-17.6235
-23.6891
18.4422
7.44278
11.9232
-13.6061
15.1684
-19.3156
11.7251
36.3292
10.1375
9.46573
-4.43485
17.1343
6.20246
-14.6311
7.63224
25.4411
-7.77501
5.06714
-10.8621
9.21323
18.7831
-3.33049
1.93416
2.72659
28.5705
3.2846
6.5558
-24.4352
14.5948
9.50546
23.2287
-29.4496
-0.509225
18.9732
-11.9082
27.8357
-18.8395
31.9237
-14.4537
5.75872
43.5977
3.00337
-19.8339
-26.7672
19.8722
17.4878
-18.3868
21.4276
27.5723
-21.1642
41.4398
-0.13995
-0.536198
29.8389
14.2951
-41.0461
13.3085
27.2014
-16.4791
15.8551
-40.4221
31.9946
-11.5034
-2.47006
13.0176
17.0248
17.3894
21.5803
11.2041
-3.83918
24.6296
9.82479
18.7687
-16.4089
27.6464
2.07098
16.5024
-1.05775
13.1111
0.226965
15.0959
-3.77099
-11.5519
-4.6256
19.089
-14.2364
-3.31261
19.6835
-20.9965
11.935
0.797606
-16.0452
5.66743
12.0011
-2.57257
19.8003
4.95613
-4.21911
12.8814
3.27269
17.3684
-1.90402
11.4272
-14.4006
-15.9077
-12.4944
9.54737
18.8547
2.67407
-17.6773
-0.904446
14.8077
3.37396
-0.701198
12.1349
13.4484
0.832225
5.51964
14.7082
-20.9583
-1.051
3.26485
0.54866
12.3727
2.66906
10.0782
12.3528
5.84779
9.20714
2.62325
-6.33376
9.55148
15.2262
-4.95093
7.61961
-8.20673
5.53804
-0.263997
-3.7832
-0.903726
-9.04788
8.27454
-7.328
8.10134
-2.70565
-11.4169
5.07467
-5.60893
9.75549
4.12798
-4.67034
-1.20259
-5.79237
2.32044
-7.44827
10.9202
4.66882
-0.705697
-2.09564
9.08491
-6.67029
12.1943
-12.2563
4.90806
-0.858498
-9.15721
-6.88228
-8.79001
1.41402
6.22688
-0.331453
-0.795427
-5.1
15.7289
-16.9503
-5.98885
4.22662
-0.679711
-5.6406
7.68667
-5.88945
-7.26062
5.4634
3.59269
1.2749
2.81908
-7.9042
-9.73163
5.79986
11.836
1.87203
4.12849
-11.89
7.10469
-13.1369
-8.58242
5.93807
-6.47684
9.12119
5.20096
-6.67869
-7.24608
2.43673
1.90981
2.89954
8.14254
-11.2601
6.95811
4.21753
-3.0331
4.27971
5.11514
2.08819
5.02257
-8.62016
9.40002
3.49985
-0.809944
-5.07104
-3.10402
16.3119
-8.13681
-26.469
1.11963
13.8929
11.4564
-1.57768
-26.3817
1.49044
-15.9727
-2.60272
13.5044
8.1533
-1.00104
-23.125
-20.5151
9.98861
11.6461
0.228587
-22.3213
-5.29855
12.1831
-17.8889
9.98765
-19.1359
1.47562
17.0409
1.95014
0.411841
-19.4029
7.14073
10.6367
-0.736558
-6.01347
-4.5394
5.29318
5.25969
-12.4201
-7.51143
13.9181
-12.203
12.2879
7.0558
1.41744
-11.6703
-12.3894
10.6061
1.64778
-13.6254
-4.65403
17.3971
-0.455126
-3.40343
-16.5495
15.4136
-22.2405
2.96216
15.8749
-1.67511
-23.573
3.00762
-18.8225
0.597869
-15.2226
13.5308
2.79959
-19.9743
0.45685
-21.2303
-13.3484
-20.9267
7.17755
15.6025
-1.85329
-8.53298
5.73111
-18.1249
-1.86884
8.65332
5.13592
-11.9204
16.4264
6.01146
-24.3067
1.45595
12.4041
2.5663
8.0966
2.01267
21.1348
12.6423
-18.5836
-15.1934
15.9843
7.3548
-2.20433
-19.5882
14.1392
21.4333
-4.6925
-2.25346
10.7147
-14.1118
14.3708
3.5215
8.57243
-5.57981
2.73849
19.872
4.30291
-18.2162
5.64403
-11.9
4.90711
21.1321
-4.18838
15.291
7.17638
13.1095
18.6788
-11.9163
33.3076
5.1556
9.94543
0.59476
-15.6958
10.1703
-11.5547
6.53994
-4.73781
1.18257
13.7256
-2.8188
8.02642
3.47537
-0.286484
-14.7435
-8.56916
-3.38811
13.1398
8.38994
-4.00617
2.62718
-7.01095
5.54463
7.98998
-4.32091
-9.2137
11.3622
2.66709
-8.4847
0.799748
12.0006
-4.81036
13.1264
-3.93673
-7.53611
2.44233
2.63063
5.9128
-10.3631
9.60566
-6.56107
8.19851
-0.970768
9.96888
5.20306
-9.70119
-5.47075
7.02868
2.10146
0.838738
-4.05627
3.41018
7.67477
-0.731995
1.87878
3.43082
9.56703
-10.8964
-2.47926
12.9121
-7.02267
-3.3696
11.4767
-4.95663
-3.15045
4.68728
-7.17547
-0.881417
4.36937
-4.97582
-0.125536
-8.86944
10.7596
5.58167
0.943141
4.95188
-8.88394
5.59617
-9.17249
-7.09918
-4.57118
4.77414
6.89622
-9.02015
1.12636
0.79461
-1.91096
-3.23771
0.577497
6.44033
-8.11856
-0.232729
5.11971
-8.10856
9.42919
-6.32845
16.2223
-4.87283
-7.38504
7.13661
-8.52051
2.51026
-4.91141
5.71957
-7.56299
-0.434674
-0.1209
-3.62309
-9.39689
-8.78414
-0.177081
0.440717
13.2548
-0.484465
-11.1711
-1.59924
16.2982
15.6751
-19.7378
-12.2355
3.95626
10.8426
1.49936
11.9948
5.21621
14.2382
3.07619
-1.63928
12.9601
12.1207
23.7579
-12.1301
-3.47305
-8.15481
0.437021
-1.70439
25.0253
-14.9581
-0.602938
15.9981
-15.0934
22.3578
-14.4773
-11.3535
-0.994411
21.6478
22.8994
-16.8982
-6.49885
0.497596
0.532807
21.3722
10.6752
-13.2674
-14.3059
15.434
-1.68264
-0.969987
13.3272
-6.34894
-14.6273
14.9968
12.1713
-0.566254
3.76611
-15.3712
1.17635
14.5332
-3.53824
20.1527
16.8435
-22.7353
-14.261
-1.84868
9.00107
13.0003
5.49315
9.5017
10.9291
2.53702
-14.0323
-2.62646
14.7319
11.3727
12.1616
3.35097
-22.3201
-17.8359
7.15178
10.1196
0.564533
-12.0657
-0.238033
-5.53213
1.68761
16.486
-6.80089
14.4285
-0.195765
-10.8818
9.28898
10.6327
3.06639
-12.5951
-17.7191
4.88947
19.9814
-12.0604
-5.89674
15.8661
-9.18974
-4.06405
1.36763
-0.404032
3.10045
0.8627
-4.17284
-0.753906
5.01306
-3.65649
-0.493863
1.29554
5.08514
-4.50778
1.14242
2.96133
-4.26991
-4.41072
2.36769
1.79926
-3.02453
1.34312
6.04217
-5.0176
-3.48668
6.12534
-1.45206
-1.9435
-2.01675
5.41231
4.61707
-2.51766
-3.55146
2.09429
-0.498932
3.02171
2.45678
-2.74976
-3.36352
1.06439
2.19111
-7.45852
-4.0223
-10.2367
14.6883
-15.5628
11.1112
7.86046
-0.114053
-17.9832
0.836046
-3.117
10.1414
-4.52745
20.0518
-24.7397
-1.21982
5.35083
20.6087
-13.7726
-1.48562
-9.48147
1.58676
-5.47105
-11.6785
-3.11306
-15.6897
14.2753
-18.4385
14.1056
-12.0855
-20.1256
18.1773
-11.2638
-8.39911
20.4111
-9.87077
-4.23221
-8.41038
-0.65392
-2.1995
2.93703
-17.083
5.73555
-19.0192
6.50442
8.15059
-14.655
13.358
-12.8243
5.97072
2.75128
-3.67725
9.07656
-1.45098
17.5602
3.42442
-18.0794
-12.4786
3.07876
2.13584
-18.4609
1.86314
14.4619
-17.9934
4.32228
15.807
-21.4465
20.2433
1.85745
-0.654199
-2.10724
1.5294
-20.8687
-2.24615
4.02853
-21.1563
0.916724
-16.1085
18.9798
-2.34639
2.17426
-12.3065
0.672082
-21.0979
-15.1566
13.3425
14.1321
-15.5672
0.832943
-0.618585
-19.0083
-14.5528
1.123
7.22749
1.4812
-9.83169
2.40176
0.209613
-13.5115
10.9002
16.6924
9.36609
-18.9722
-7.08632
-9.48232
14.6958
11.4789
-6.86404
8.90855
-2.69425
0.649737
-9.08822
2.50421
-0.280029
15.1408
2.73033
-15.4694
-6.49101
12.5436
0.746903
-4.50759
-9.90888
10.3363
-2.85886
2.43145
2.41798
-12.1172
-3.25223
8.41564
4.20268
1.49376
-18.048
-7.24166
8.20706
-9.444
1.40119
-4.32429
12.3671
-7.34181
-24.513
22.4108
2.93767
21.0911
-14.2527
-9.77603
-13.3145
3.02331
5.61624
4.67499
-13.3173
-15.4625
15.4652
-22.1274
1.46832
-7.61256
11.1721
16.3969
-19.9564
-4.33169
-1.87967
-6.17875
-9.34448
18.4609
-8.62535
-11.1975
13.6441
-7.81093
2.20889
1.85882
-0.0312321
-12.3023
2.96358
-8.42984
-11.6834
-7.12893
5.9315
-7.27492
8.47235
-10.4348
6.16084
-2.85503
0.182788
-10.4199
11.754
-1.51689
-9.27375
-0.978214
-5.89602
-3.53318
15.3607
-6.02766
6.29248
0.0746348
-15.428
9.32573
-20.9878
8.197
12.8654
-0.868747
6.59159
-14.9966
6.99901
-18.2876
3.52293
-12.3594
-6.37965
-11.0852
-0.320903
4.79996
-9.96311
14.6269
16.4912
-15.8719
6.20721
40.9027
-24.4819
-1.61155
-14.8092
1.0811
18.9908
20.8308
-29.1301
-2.02787
19.8432
11.3147
-16.9116
-36.7004
-22.19
11.2929
11.9782
-14.8178
-8.98377
-23.2412
12.0941
9.11923
-10.894
7.69165
-20.0389
0.303733
-28.1093
7.49871
31.3353
9.00758
-12.6539
14.9392
-28.1803
25.392
14.8824
-5.21953
-15.2692
13.8263
8.81042
-22.333
22.2324
-5.72611
12.4235
-13.415
-1.96628
1.73589
16.324
-12.7331
1.74754
12.6102
-6.11782
2.62888
-13.9928
17.4817
15.3131
-16.987
-2.34574
5.06519
-6.41651
16.6644
-11.284
-0.42459
-9.60309
21.3117
-1.81527
-15.5866
-2.0447
21.1349
-4.76222
1.0209
-13.2457
-10.0198
17.9077
-8.31244
2.37313
-14.2082
-18.2327
15.8436
2.87453
3.41222
14.438
-20.7247
7.18618
23.6802
-27.9918
12.6215
-8.97167
9.61717
15.8828
3.77687
-1.75202
21.0243
7.9889
6.28931
-25.1246
11.27
-15.4503
-5.62901
9.06139
7.81462
1.00814
18.1637
-7.90184
10.0485
9.01836
-12.7775
-6.10101
17.1576
8.11718
4.41751
11.446
6.47603
-9.80488
-1.05953
9.21049
1.93225
2.22547
-15.2292
11.0715
15.332
-6.62728
6.8993
-15.604
-4.52171
-0.953368
20.807
-12.8052
3.48161
-2.0985
11.4221
4.10449
-14.9774
-4.39618
14.9325
-15.058
-9.95858
-3.80821
12.8134
-16.6069
0.0210904
21.3944
-0.913276
-10.0204
-10.4607
2.174
2.16252
17.0579
17.7184
-9.23282
-9.39887
4.48144
15.411
12.9565
3.99898
-12.851
-0.168857
-0.459166
-12.719
17.1772
-4.18792
-12.2438
15.9725
19.4149
-11.7535
-17.6818
17.1813
13.9193
-13.2461
-13.716
13.4195
9.4462
-18.6856
-4.18008
-6.93832
11.5011
8.85666
5.92802
-3.42013
-14.8342
3.86072
11.7282
-0.754707
-16.3827
-11.3194
12.8679
2.02041
-13.7248
17.6324
-4.27089
-11.2417
17.533
3.40029
11.9616
13.5816
-12.6443
-5.20818
18.8965
-9.54921
4.23429
4.22358
19.8382
-5.16531
21.6738
-14.0499
-8.70213
-1.87723
-3.66248
14.2418
-13.428
12.9185
-8.19256
8.49941
-5.97938
-2.52003
2.99837
-0.597598
11.8602
-14.2609
0.122548
11.3752
7.88312
-3.92476
-5.83559
1.30003
5.71691
-2.04399
-4.97295
7.79239
-6.49235
1.813
2.06116
-11.0364
8.37766
-5.76192
7.94563
-7.31714
-15.1651
16.7203
-5.50414
-15.9595
-13.2746
14.069
-13.3456
-8.11805
-4.66381
-2.85139
-5.75943
-12.2925
-6.00469
1.64085
10.5018
1.2475
-13.3901
-16.0596
14.0932
3.60729
0.552671
-0.634207
-15.9781
-1.40767
-0.0559237
15.5568
-1.24138
10.3355
5.20621
-20.2385
16.5281
-1.49579
12.3294
-11.3466
4.22337
15.0733
-2.60368
-15.8294
3.35981
15.6857
-0.612393
-16.2383
-1.74818
17.9306
-0.568801
11.6568
4.94753
-1.32131
-23.8647
-8.54454
2.14552
17.238
-1.12259
0.412692
1.16935
15.4998
14.6052
-18.5301
-0.884374
14.8771
15.4286
-16.0074
-18.039
-15.6462
23.3561
10.3292
-5.11288
-26.0774
13.1512
8.4266
-2.27152
-21.8013
5.53873
29.3449
-11.5275
-24.826
-9.34936
15.1553
19.0201
16.913
-28.9933
4.40442
7.6759
-4.93371
27.3854
-26.1738
-4.11181
5.45955
-21.8569
1.29023
0.361283
-18.3734
-3.84482
30.2772
-25.234
-4.68186
20.2775
14.4041
-11.6309
26.9748
21.9205
-31.5647
-1.9868
4.63728
-19.444
-3.56671
-20.9967
0.399985
4.25738
-7.66043
-4.73327
8.13632
-3.20675
2.2631
5.20103
-1.82963
-0.00134072
-5.82946
8.26709
-0.184583
-9.91214
8.60524
-7.73936
-10.2365
9.37063
-3.20106
5.2071
6.5992
1.85928
1.75186
-9.6758
-5.44583
6.21015
0.521025
-19.6235
12.8923
-5.17711
5.06477
6.32248
10.1719
-0.623984
3.74983
-13.2978
12.997
6.48296
-18.959
-11.844
11.8126
15.974
-15.9426
-1.50474
-10.3392
-11.1309
9.27357
12.0293
-12.6357
9.30829
3.06476
12.5209
-8.00372
1.96576
-4.16539
25.2516
17.6638
0.922947
-2.30474
-12.641
14.0228
-1.46715
-11.1109
13.501
2.15882
1.01266
-15.7564
12.585
-13.2604
13.952
-13.0416
11.7495
5.70241
-10.7042
-7.63917
-5.40853
-3.87889
-14.4176
5.03611
6.72165
-3.83849
2.17821
-5.06137
-16.1856
9.86565
-2.08935
-17.9347
-9.28742
-1.36361
-12.2146
-2.66071
-13.1205
1.3145
-14.1081
-10.6336
13.2974
-13.7187
5.42457
-5.00319
-6.96388
7.30362
12.9576
8.56894
-2.4926
-19.7951
1.60505
9.53072
4.13971
-8.24586
19.6111
-2.77673
-7.73488
9.33993
-11.6744
1.61493
12.1083
-2.04878
-5.4815
-13.9278
-17.3627
9.38863
9.51561
-13.4971
-13.7511
17.7326
-0.358813
9.87442
-0.448214
9.95482
1.43402
-10.9406
1.99788
-15.9432
8.76263
8.56429
-7.37209
8.40382
-0.631679
10.6151
-8.54941
14.1249
-12.7587
0.236571
12.5206
-13.1309
0.373653
3.79687
-6.23009
16.5581
-0.58969
-11.9792
11.8494
0.719418
7.81413
-3.34466
-0.0702066
15.4288
-11.535
-0.0969352
-0.226244
16.0969
-0.441812
0.493275
7.55742
12.1165
-4.2646
-16.5863
15.3886
-12.7017
13.8994
-10.1531
-2.72127
-3.71188
4.34209
-1.63561
12.6821
-23.2613
1.62198
8.93756
-19.7933
-13.621
-9.98311
15.7312
-1.40596
16.2113
-12.9248
-6.00773
10.5073
4.06836
-17.086
8.72491
27.1472
-7.31544
-28.481
8.64931
23.7339
-13.6728
16.7355
3.94365
-6.2632
-14.4159
11.1539
4.61182
0.969751
1.64537
-28.7542
-11.8221
12.1204
10.8556
-6.1486
-1.72988
13.9785
-18.5963
5.66545
12.0978
10.9603
-11.6219
-11.4362
-5.88731
14.2647
3.7204
-21.0581
3.90606
14.248
2.90404
-9.74312
-0.35463
18.2555
-12.4618
1.99893
-7.79262
23.2822
-6.94177
1.91512
11.2832
0.303509
-23.2086
8.27468
-2.87881
13.3174
4.85336
11.1254
-22.1525
11.3306
6.66329
-7.99973
-17.4975
-16.4994
20.8444
13.1525
1.58399
-10.8068
-8.25214
0.047588
35.1588
-22.2425
-12.9639
32.4926
-11.9426
-20.5024
5.20705
15.7344
14.2173
18.1248
19.5748
-21.5039
-6.39547
5.65686
11.1925
13.0181
-8.47615
-11.0147
2.27005
12.7328
-3.98815
-11.5164
-1.8739
2.3756
16.6741
-4.69396
-12.8876
0.907415
11.3772
-6.21945
-15.7472
17.2441
6.09964
-7.5966
6.76471
-20.6375
-1.87437
-1.96374
15.4263
-4.97121
21.1323
-21.0164
2.33975