/*--------------------------------*- C++ -*----------------------------------*\
  =========                 |
  \\      /  F ield         | OpenFOAM: The Open Source CFD Toolbox
   \\    /   O peration     | Website:  https://openfoam.org
    \\  /    A nd           | Version:  10
     \\/     M anipulation  |
\*---------------------------------------------------------------------------*/
FoamFile
{
    format      ascii;
    class       volVectorField;
    location    "2";
    object      U;
}
// * * * * * * * * * * * * * * * * * * * * * * * * * * * * * * * * * * * * * //

dimensions      [0 1 -1 0 0 0 0];

internalField   nonuniform List<vector> 
75457
(
(4.88353 -0.599354 -0.776696)
(4.90548 -1.63824 -1.17322)
(7.29583 -0.241389 -0.508166)
(9.72697 -0.56437 -0.999141)
(4.20893 0.66939 -0.0396647)
(4.50869 0.907126 -0.0805169)
(5.28774 -0.952075 -0.718951)
(5.01113 0.355234 -1.15146)
(10.8764 -0.871735 -1.07977)
(10.7072 -0.620766 -0.872441)
(11.0064 -0.433111 -0.919108)
(5.1829 -0.183215 0.257381)
(5.35775 -0.315782 -0.124555)
(9.94182 -0.500047 -0.327466)
(10.6039 -0.372988 -0.315645)
(10.665 -0.356497 -0.278847)
(10.7428 -0.372327 -0.347288)
(10.6562 -0.398137 -0.411291)
(10.7199 -0.39 -0.301492)
(10.6979 -0.312389 -0.302611)
(10.6373 -0.352853 -0.370787)
(10.7552 -0.377978 -0.301116)
(10.7267 -0.43902 -0.348585)
(10.7447 -0.475786 -0.3599)
(10.7854 -0.417481 -0.314717)
(10.6476 -0.475896 -0.432224)
(10.5745 -0.468698 -0.430109)
(10.0747 -0.536024 0.0699478)
(10.0247 -0.559189 0.14575)
(10.0429 -0.488102 0.0558854)
(10.0659 -0.408412 0.0410634)
(10.0059 -0.466167 0.0993945)
(10.0086 -0.442489 0.100464)
(10.1243 -0.404128 0.0523064)
(10.1071 -0.36611 0.0378392)
(10.1684 -0.419356 0.144157)
(10.1475 -0.443248 0.0758338)
(9.99656 -0.523683 0.143418)
(10.0148 -0.468369 0.122594)
(10.1106 -0.319315 0.0463669)
(10.1213 -0.340651 0.0587006)
(10.1085 -0.319513 0.0567883)
(10.1517 -0.41397 0.136774)
(11.9818 0.825187 -0.128242)
(11.9178 0.859256 -0.334399)
(11.8683 0.65717 -0.00829792)
(11.8954 0.623419 0.0595904)
(11.9076 0.667922 -0.135639)
(11.1589 0.104063 0.10258)
(11.3443 0.154174 0.158074)
(11.3809 0.16048 0.139482)
(11.2171 0.117416 0.143904)
(11.0577 0.124144 0.0325329)
(11.2955 0.146683 0.141392)
(11.3687 0.159565 0.1797)
(11.3878 0.163003 0.154741)
(11.1713 0.151641 0.0884414)
(11.1941 0.153856 0.0765195)
(11.1654 0.109334 0.0618344)
(11.0443 0.124107 0.0276357)
(11.1225 0.137782 0.0619762)
(11.2328 0.123769 0.104597)
(9.96826 0.048665 -0.320682)
(9.97231 0.06005 -0.341906)
(10.145 0.0759289 -0.270658)
(9.95289 0.0544756 -0.305982)
(9.96939 0.050502 -0.282895)
(9.92062 0.0302714 -0.279985)
(9.93503 0.0381003 -0.219371)
(9.83241 0.0248077 -0.244573)
(9.84429 0.00661217 -0.237733)
(9.7924 -0.000336538 -0.251348)
(9.97092 0.0427073 -0.230214)
(10.1351 0.0811146 -0.265234)
(9.94352 0.0446796 -0.204712)
(10.1166 0.0702814 -0.236463)
(10.1037 0.0644197 -0.221965)
(-1.18231 -0.609704 -0.35828)
(-1.40587 -0.784273 -0.960845)
(1.25258 -0.421828 -1.62225)
(-0.014439 0.18433 0.742936)
(-2.26263 -0.716647 -0.250619)
(-0.0585894 -1.13866 -0.737015)
(1.27349 -1.44195 -2.16988)
(-0.853656 -0.167952 0.171119)
(-0.834536 -0.114931 -1.02554)
(3.15774 -0.717484 -1.48385)
(2.51756 -0.659261 -1.41634)
(0.844557 -0.288075 -0.204651)
(1.85004 -0.0907581 0.314732)
(0.320898 -0.931712 -0.534452)
(1.23438 -0.975836 -1.67112)
(-0.488123 -0.2232 1.20763)
(-1.50025 -0.059533 0.544673)
(11.4837 -0.339624 -0.0567995)
(11.6917 -0.368573 -0.103636)
(11.6907 -0.368284 -0.102376)
(11.7252 -0.371768 -0.099256)
(11.3468 -0.344427 -0.0238279)
(11.5114 -0.362569 -0.0667591)
(11.5636 -0.357433 -0.0486269)
(11.4739 -0.355206 -0.0469381)
(10.0172 -0.0100426 -0.0196456)
(10.0274 -0.00938018 -0.0165332)
(10.0208 -0.0150434 -0.0220319)
(10.0211 -0.0196396 -0.0154957)
(10.0121 -0.0177546 -0.00668799)
(10.0235 -0.0176931 -0.00584499)
(9.85511 0.000643446 -0.0203298)
(9.93358 -0.0144135 -0.0149571)
(9.94508 -0.0182846 -0.0110005)
(9.90194 -0.0189798 -0.00158624)
(9.871 -0.025909 -0.0229411)
(10.7807 0.0969138 0.0700615)
(10.8152 0.121157 0.192544)
(10.4113 0.0856085 0.115208)
(10.4059 0.0155093 0.038317)
(10.7964 0.0687126 0.21031)
(10.667 0.136526 0.11939)
(10.5675 0.185922 -0.0198719)
(10.8766 0.0903153 0.275742)
(10.8664 0.114911 0.285368)
(10.7615 0.115386 0.277485)
(10.5704 0.14032 0.130765)
(10.4696 0.113849 0.0915501)
(10.5134 0.112026 0.145408)
(10.5698 0.151463 0.0583807)
(10.5219 0.0795349 0.154297)
(10.5637 0.041827 0.0851504)
(10.6495 0.104912 0.233674)
(10.7464 0.102059 0.252113)
(11.341 0.00896422 0.354254)
(11.3919 0.0694509 0.310079)
(11.3999 0.0490184 0.336358)
(11.3338 0.0350562 0.313201)
(11.3283 0.0164146 0.301296)
(11.3108 0.0832898 0.325009)
(11.2612 0.0389423 0.305905)
(11.2735 0.0308675 0.34214)
(11.2139 -0.00845319 0.316039)
(11.8133 0.0121359 0.162167)
(11.8192 0.00104996 0.177234)
(11.7479 0.000304944 0.205274)
(11.8229 0.0100789 0.136081)
(11.8471 -0.000425736 0.151255)
(11.6624 0.0164023 0.108534)
(11.7616 -0.00438593 0.208523)
(11.7881 -0.0128526 0.177917)
(12.293 -0.021175 -0.00236478)
(12.4049 -0.0151919 0.01779)
(12.1566 -0.0399238 -0.0607009)
(12.2737 0.0122809 0.00800991)
(12.5215 -0.0247719 0.0951441)
(12.4747 0.00887651 0.124598)
(12.3517 -0.0183273 0.0524615)
(12.2514 0.00776799 0.0100775)
(12.2337 -0.00326645 0.0443801)
(12.1604 -0.00380955 -0.00123234)
(12.4628 0.00228396 0.118613)
(12.2705 0.00889964 0.0119344)
(12.2456 -0.0300799 -0.0203272)
(12.4446 -0.00603901 0.146976)
(12.2203 0.000121949 0.0411714)
(11.5017 1.06875 0.906025)
(11.2606 1.23206 0.894574)
(11.1742 1.29745 0.856971)
(11.3564 1.20699 0.806961)
(11.2266 1.10447 0.768508)
(11.6936 0.929034 0.872408)
(11.5315 0.745025 0.56539)
(11.4114 0.873171 0.694939)
(11.5401 1.2592 1.03202)
(11.4208 0.953606 0.671797)
(11.5228 1.06711 0.70894)
(11.7863 1.12809 0.910626)
(11.61 0.921754 0.616216)
(12.3609 -0.116433 -0.0762392)
(12.4616 -0.086676 -0.10026)
(12.4029 -0.0578367 -0.0437791)
(12.3019 -0.0825276 -0.0155772)
(12.3346 -0.0630707 -0.00388466)
(12.2038 -0.0698375 -0.0289476)
(12.321 -0.119915 -0.0423316)
(12.2574 -0.132146 -0.0199223)
(12.1195 -0.138511 -0.00501162)
(12.4458 -0.094504 -0.113491)
(12.2962 -0.0902805 -0.0370284)
(12.3352 -0.116179 -0.0701134)
(12.2056 -0.0834805 -0.0222121)
(12.1757 -0.0728117 -0.000688136)
(10.9533 -0.0918655 -0.88485)
(10.4755 -0.228048 -0.981163)
(10.3745 -0.0328757 -0.998626)
(9.93979 -0.123895 -0.948324)
(9.50015 -0.171435 -0.981481)
(9.78151 -0.0884481 -0.951692)
(11.8376 0.291913 -0.571714)
(11.7366 0.173041 -0.434102)
(11.8183 0.14416 -0.402476)
(11.8344 0.161723 -0.441123)
(11.9522 0.181331 -0.436845)
(11.7333 0.123208 -0.170422)
(11.5519 0.231555 -0.128479)
(11.6026 0.219107 -0.105156)
(11.6843 0.240929 -0.211804)
(11.9164 0.22273 -0.215677)
(11.8183 0.181593 -0.0476623)
(11.3424 -0.0060965 -0.183707)
(11.3163 -0.0550229 -0.0638656)
(11.2975 -0.0602978 -0.0576316)
(11.4153 -0.0896414 -0.13909)
(11.4739 -0.0170538 -0.267436)
(11.1731 -0.0484789 -0.0655263)
(11.236 0.0501226 -0.156443)
(11.3624 -0.0211731 -0.271738)
(11.2274 -0.0130455 -0.178269)
(11.1802 -0.071901 -0.0388977)
(11.429 -0.00669337 -0.287277)
(11.1549 0.0258378 -0.173657)
(11.0696 -0.0303406 -0.020683)
(11.0894 -0.00336663 -0.0914161)
(11.7996 0.29658 -0.0233535)
(11.8349 0.306961 0.00853822)
(11.7059 0.280928 -0.028607)
(11.958 0.247168 -0.000879713)
(11.862 0.253068 0.0328407)
(11.7764 0.289409 -0.0240441)
(11.8847 0.29471 -0.000790644)
(11.855 0.338287 -0.0429129)
(11.7518 0.318285 -0.0148121)
(12.0322 0.304102 -0.06124)
(12.0604 0.270891 -0.0505256)
(11.8722 0.281429 -0.0120086)
(11.874 0.319728 -0.0300746)
(11.9336 0.282909 0.00212367)
(11.2843 -0.0433036 -0.571642)
(11.192 -0.0230953 -0.66059)
(11.2483 -0.12787 -0.533644)
(11.1786 -0.0902954 -0.415797)
(11.225 -0.100574 -0.415951)
(11.3111 -0.139114 -0.584563)
(11.2126 -0.00789845 -0.46701)
(11.1202 0.0219843 -0.556008)
(11.1605 -0.0491247 -0.663749)
(10.9623 -0.0164434 -0.510115)
(11.091 -0.0787095 -0.59043)
(11.0743 -0.0410479 -0.403181)
(11.1436 -0.0314298 -0.393118)
(11.0742 -0.0321802 -0.636462)
(10.9955 0.00656957 -0.558338)
(11.0857 -0.0231294 -0.405218)
(11.0848 0.0220008 -0.550835)
(9.49243 -0.107084 1.06192)
(9.03589 0.0779523 0.901638)
(9.14492 0.031142 0.856115)
(9.09514 0.0715704 0.892188)
(9.00574 -0.0474409 0.769837)
(9.26504 -0.109961 0.727956)
(9.42556 -0.22661 0.960506)
(10.8274 -0.229697 0.833172)
(10.8934 -0.266269 0.827776)
(10.8177 -0.240432 0.815701)
(9.60068 -0.116915 1.02214)
(9.22581 -0.143165 0.842859)
(11.3755 0.0674096 -0.090028)
(10.8438 0.0780357 0.0304651)
(11.1637 0.0114639 -0.131614)
(10.8972 0.0153385 -0.0797481)
(10.8726 0.0713419 0.0250152)
(10.9412 0.00450337 -0.0389401)
(10.9069 -0.0270565 -0.0631565)
(10.9204 0.0735598 0.0177996)
(11.1848 0.0456652 -0.116882)
(11.215 0.0562422 -0.118177)
(11.2914 0.0965888 -0.0860395)
(11.2692 0.0600293 -0.133599)
(11.2515 0.0775902 -0.0629125)
(11.8711 0.00875144 0.099706)
(11.8341 -0.00226407 0.114975)
(11.9238 0.0120002 0.124938)
(11.9537 -0.0127049 0.153988)
(11.9143 -0.0204913 0.150833)
(11.9 0.00882867 0.0869521)
(11.8803 -0.0126464 0.104958)
(11.9621 0.00116745 0.125151)
(11.9252 -0.0100715 0.130757)
(11.9225 0.0095962 0.0887248)
(12.1184 0.0199213 0.138516)
(12.0754 0.0139256 0.120289)
(11.9838 0.00834612 0.100601)
(12.0654 0.0126808 0.10055)
(12.0816 0.0138093 0.100304)
(9.93564 0.00248522 0.0354231)
(9.87313 -0.000951782 0.0369954)
(9.81524 -0.0194403 0.0607495)
(9.7693 0.00148377 0.050861)
(9.82398 0.00355927 -0.00210242)
(9.96285 0.00155958 0.0322045)
(9.97243 0.00804081 0.0418424)
(9.80281 0.0252593 0.0358443)
(9.89731 -0.014387 0.0420934)
(9.42044 -0.021518 -0.187179)
(9.31723 -0.00824605 -0.175443)
(9.41657 -0.0438644 -0.214224)
(9.44514 -0.0479449 -0.199763)
(9.36041 -0.0340019 -0.204734)
(9.23445 -0.0205728 -0.188477)
(9.23495 -0.0399246 -0.228354)
(9.3127 -0.0797898 -0.251907)
(9.25717 -0.0320377 -0.172718)
(9.33995 -0.0535875 -0.212641)
(9.38936 -0.0606006 -0.204959)
(9.44641 -0.0480959 -0.168051)
(9.45742 -0.0594041 -0.179758)
(7.31952 0.0781124 0.959482)
(4.50739 -0.327905 1.33222)
(4.69915 0.0220399 0.72778)
(7.74027 -0.0514289 0.629733)
(8.19697 -0.159587 0.850446)
(7.71546 -0.284269 0.898886)
(8.03537 -0.0359004 0.913792)
(2.74206 0.346629 0.974475)
(2.81975 0.383166 1.24659)
(4.39532 -0.286858 1.10413)
(4.03885 0.0622127 0.882177)
(11.551 0.0971555 0.0920455)
(11.5868 0.12133 0.0949796)
(11.5926 0.123041 0.0898504)
(11.4434 0.137221 0.0406403)
(11.4022 0.133818 0.0331332)
(11.4383 0.10468 0.0513265)
(11.4361 0.127204 0.0447009)
(11.4101 0.118345 0.0346077)
(11.3195 0.122258 0.0361375)
(11.5489 0.084669 0.0871941)
(11.5721 0.0926783 0.0799032)
(11.337 0.0586565 0.0283595)
(11.3309 0.0591726 0.0480407)
(11.2608 0.0916205 0.00622218)
(11.4181 0.0871276 0.0495569)
(11.3059 0.0586745 0.0341108)
(11.2624 0.0508051 0.0193396)
(6.14788 -0.129608 1.06856)
(4.98639 -0.131497 0.717292)
(4.06546 -0.205845 0.489778)
(4.16624 0.122921 0.295542)
(3.71724 0.0154576 0.49965)
(5.69909 -0.165442 0.99569)
(4.03166 0.230442 0.54022)
(4.30423 0.0558827 0.479847)
(6.27575 -0.126086 1.06132)
(3.84958 0.0637498 0.122399)
(3.72213 0.00824859 0.308381)
(10.7931 0.040368 0.0507076)
(10.7418 0.0489408 0.0167202)
(10.6637 0.0379478 0.0275071)
(10.5797 0.0103474 0.0784363)
(10.4495 0.0354939 -0.0179623)
(10.7176 0.00778571 0.106559)
(10.6825 0.0100639 0.0890732)
(10.4885 0.0568417 0.0635729)
(10.5696 0.0352 0.0449814)
(10.3995 0.0131185 0.056763)
(10.5403 0.0318632 0.0321885)
(10.2644 -0.0428572 0.0665017)
(10.2569 -0.0353672 0.0540777)
(10.2842 -0.0389092 0.0731567)
(10.2701 -0.0334942 0.0542275)
(10.1626 -0.0359442 0.0353916)
(10.188 -0.0408888 0.0464712)
(10.1239 -0.0312307 0.0235943)
(10.1537 -0.0328663 0.036)
(10.2313 -0.0331727 0.0545685)
(10.1818 -0.0290891 0.0378373)
(10.004 -0.0280704 0.00204566)
(10.0702 -0.0319394 0.00505908)
(10.1191 -0.0334007 0.0299389)
(10.1579 -0.0216743 0.0331845)
(10.0877 -0.0323233 0.0333066)
(9.8501 0.0353801 0.770783)
(9.62473 0.0664504 0.63962)
(10.1195 0.0546924 0.527459)
(10.2792 -0.045264 0.524528)
(9.53506 0.00152251 0.576278)
(11.1498 -0.0499229 0.672107)
(11.2646 -0.0755559 0.694805)
(11.3483 -0.108611 0.727969)
(11.3425 -0.0882268 0.724306)
(11.5196 -0.174531 0.757164)
(11.4855 -0.184411 0.768215)
(11.4304 -0.114651 0.725863)
(7.87756 2.46152 -0.0557049)
(7.44364 2.62757 -0.565044)
(8.82029 2.23248 -0.330302)
(8.67119 2.50295 -0.490629)
(7.92189 2.91633 -0.129084)
(7.39887 2.9542 -0.656633)
(8.02419 2.19915 -0.0355425)
(7.52301 2.30404 -0.656693)
(8.1722 2.95469 -1.3141)
(7.29276 3.01558 -1.38359)
(8.2323 2.08702 -0.140559)
(7.9081 2.09286 -0.733189)
(8.25454 2.63051 -1.23436)
(7.70943 2.59347 -1.06472)
(8.89812 2.14392 -0.338525)
(8.42185 2.38629 -1.16518)
(7.84969 2.3476 -1.00397)
(8.92221 2.18427 -0.539046)
(9.58172 2.01991 -0.377041)
(9.74117 1.86012 -0.45279)
(9.56872 1.90506 -0.676731)
(9.49613 1.99228 -0.768356)
(9.50816 1.72072 -0.670637)
(9.431 2.02106 -0.761281)
(9.52965 1.86638 -0.251106)
(9.45904 2.03598 -0.301315)
(9.39413 2.14051 -0.634024)
(8.97658 1.96648 -0.58164)
(9.28674 1.65397 -0.499117)
(9.25238 1.83044 -0.29805)
(8.96869 2.16658 -0.251655)
(10.1787 3.09479 -0.986924)
(10.5287 2.65583 -0.915768)
(10.9344 2.00645 -0.389532)
(10.8489 1.90857 -0.395009)
(10.3262 2.38761 -0.899657)
(10.5469 2.37404 -0.815097)
(10.6749 2.11528 -0.542266)
(10.651 2.04642 -0.548948)
(10.4326 3.08727 -0.829903)
(10.762 2.80879 -0.688706)
(9.93821 2.74064 -0.925996)
(10.011 2.83164 -0.908407)
(10.704 2.52615 -0.324486)
(10.6157 2.33385 -0.302978)
(10.926 2.25911 -0.381256)
(10.376 2.08789 -0.623796)
(10.0658 2.54407 -0.57807)
(10.1344 2.66927 -0.607068)
(10.4397 2.62335 -0.355501)
(10.4248 2.49478 -0.381919)
(10.3646 2.75626 -0.523895)
(10.2831 2.43171 -0.452819)
(12.2141 -0.168779 0.400841)
(12.3248 -0.301494 0.479694)
(12.35 -0.274365 0.482382)
(12.3373 -0.288086 0.486891)
(12.3494 -0.256908 0.502835)
(12.2991 -0.169144 0.42807)
(12.3558 -0.229443 0.453375)
(12.3671 -0.178719 0.478964)
(12.3054 -0.285355 0.445442)
(12.2387 -0.179987 0.396173)
(12.3344 -0.243861 0.479306)
(12.3481 -0.251744 0.440601)
(12.3711 -0.183335 0.494124)
(12.3167 -0.255976 0.420954)
(12.3543 -0.199231 0.49048)
(12.272 -0.151393 0.440785)
(5.09675 -0.85337 -0.11513)
(-0.197362 -1.5241 -0.850502)
(2.40945 0.565311 0.0220063)
(1.70818 1.50664 -0.00149628)
(11.0349 0.490841 -1.39769)
(11.2934 0.658578 -1.81883)
(5.34508 0.983441 -0.0854156)
(6.30179 0.624554 -0.0876752)
(11.3891 0.110892 -1.1014)
(11.5641 0.163102 -1.30997)
(0.162482 -0.892303 0.400694)
(7.25372 -0.479789 -0.659763)
(4.93536 -0.227729 0.196887)
(5.96759 1.3404 0.172622)
(11.0975 0.486417 -1.1462)
(11.5289 0.360251 -0.98122)
(12.1717 0.032289 0.220884)
(12.1979 0.0697787 0.211461)
(12.1409 0.0288127 0.175247)
(12.1125 0.0293154 0.144948)
(12.1036 0.0491202 0.160881)
(12.0942 0.0352915 0.19462)
(12.1747 0.0468314 0.188187)
(12.2091 0.0505782 0.216012)
(12.1515 0.0710788 0.217911)
(12.1325 0.0222113 0.223777)
(12.0639 0.0483391 0.149283)
(12.0589 0.0268561 0.114616)
(12.0779 0.0311538 0.159537)
(12.088 0.0295369 0.193543)
(12.0686 0.0286059 0.109028)
(12.1105 0.0346391 0.118469)
(12.1637 0.0306485 0.140452)
(12.1313 0.0445571 0.154788)
(9.68884 1.69306 -0.189589)
(9.37275 1.61766 0.559381)
(9.28061 1.98445 0.726255)
(9.66178 1.85259 0.0716311)
(9.55488 1.99848 -0.0526696)
(9.17279 2.44382 0.192301)
(8.65726 2.63708 0.158825)
(9.3157 1.65851 -0.186317)
(9.48424 2.01036 0.488734)
(8.96123 1.8596 0.53309)
(8.81083 2.12707 0.572142)
(8.74799 2.59853 0.281958)
(9.2481 2.33734 0.441389)
(9.67383 1.72399 0.267954)
(9.61893 1.55546 0.262075)
(9.57984 1.59363 -0.132915)
(10.5507 0.655469 -0.314222)
(10.6204 0.659051 -0.264873)
(10.5812 0.605723 -0.297722)
(10.5824 0.766668 -0.340647)
(10.6861 0.83568 -0.24756)
(10.5273 0.553243 -0.313653)
(10.4663 0.633247 -0.380627)
(10.5015 0.719718 -0.412336)
(10.5593 0.737052 -0.40642)
(10.4969 0.729931 -0.440348)
(10.5507 0.74018 -0.383603)
(10.6196 0.743141 -0.428558)
(10.5697 0.733448 -0.468761)
(10.6695 0.76156 -0.374938)
(10.6137 0.733378 -0.363824)
(10.4696 0.601586 -0.342555)
(10.4382 0.630672 -0.398689)
(11.5637 -0.101887 0.732294)
(11.5761 -0.0692026 0.701789)
(11.6842 0.0797245 0.601682)
(11.6938 0.122327 0.611555)
(11.6792 0.124416 0.614617)
(11.6691 0.0727327 0.594738)
(11.5763 -0.0720709 0.790191)
(11.5582 -0.0609673 0.81431)
(11.6833 0.242089 0.73056)
(11.6685 0.317547 0.871032)
(11.5408 -0.0670073 0.659974)
(11.6724 0.0722377 0.599662)
(11.6876 0.239593 0.732471)
(11.6839 0.267433 0.810237)
(11.537 -0.0517683 0.622942)
(11.7142 0.226 0.793085)
(11.6109 -0.0567175 0.752297)
(9.97665 -1.83929 0.099008)
(10.2494 -1.81315 0.15369)
(10.3332 -1.82089 0.242524)
(9.84324 -1.93522 0.0584751)
(10.5043 -1.65718 0.143438)
(9.7443 -1.95586 0.0233823)
(10.3159 -1.60994 -0.0896712)
(10.0463 -1.77602 -0.207608)
(10.5818 -1.63754 0.194012)
(10.6212 -1.72362 0.224387)
(10.4392 -1.77055 0.266256)
(9.90988 -2.02359 -0.013478)
(10.0693 -1.77063 -0.327097)
(10.4018 -1.59972 -0.180956)
(10.3102 -1.69833 -0.274613)
(10.5449 -1.5608 0.0540034)
(9.86109 -1.97047 -0.438164)
(9.93607 -1.89222 -0.4456)
(10.6766 -0.750371 0.254571)
(10.7574 -0.659824 0.31284)
(10.7004 -0.602801 0.259994)
(10.6063 -0.533876 0.0758038)
(10.5671 -0.678058 0.0919736)
(10.6401 -0.460137 0.19372)
(10.6323 -0.738107 0.232371)
(10.6528 -0.620753 0.24233)
(10.5986 -0.575257 0.199536)
(10.5998 -0.424646 0.171261)
(10.5467 -0.554001 0.0646154)
(10.5323 -0.572225 0.150242)
(10.5246 -0.478489 0.0921852)
(10.5691 -0.739889 0.162105)
(11.1025 -1.09441 0.631926)
(11.0606 -1.06651 0.629269)
(11.2523 -1.08061 0.828037)
(11.3676 -0.844962 0.872349)
(11.3612 -1.0024 0.903208)
(11.338 -1.07112 0.862006)
(11.1737 -1.18513 0.693951)
(11.1338 -1.01574 0.688349)
(11.1363 -0.951781 0.687981)
(11.3272 -1.11522 0.851613)
(11.3518 -1.0643 0.886608)
(11.2414 -1.14925 0.745387)
(11.1595 -1.01129 0.730024)
(11.2257 -0.806453 0.73936)
(11.2474 -0.800461 0.770793)
(11.2689 -1.0762 0.800793)
(11.3341 -0.832225 0.814951)
(11.3692 -0.980626 0.868938)
(10.5967 3.1961 -0.835038)
(10.9705 3.11021 -0.732234)
(10.9604 2.87153 -0.685967)
(10.391 3.14566 -0.619551)
(10.6996 3.33416 -0.624877)
(11.3135 2.80379 -0.390145)
(11.1547 2.45042 -0.363249)
(10.996 3.25932 -0.0796862)
(11.2061 3.07381 -0.041206)
(10.5445 3.20354 -0.240918)
(11.0509 2.4143 -0.322934)
(11.0592 3.41452 -0.248829)
(11.7193 0.582111 1.27868)
(11.8056 0.411525 1.10205)
(11.5249 0.348744 1.17529)
(11.7469 0.421384 1.06675)
(11.5934 0.594441 1.19834)
(11.7505 0.272637 1.22984)
(11.4894 0.371593 1.00708)
(11.523 0.250964 0.958939)
(11.6476 0.291514 1.1798)
(11.8176 0.280221 0.938265)
(11.86 0.186776 0.911114)
(11.7795 0.205443 0.82489)
(11.7566 0.186861 0.864643)
(11.8548 0.117762 1.01052)
(11.8299 0.180554 0.882694)
(11.8295 0.140045 0.946504)
(10.995 -0.441167 1.05147)
(10.94 -0.385048 1.10351)
(10.9114 -0.400346 1.04266)
(10.8898 -0.368107 1.04626)
(10.7379 -0.517914 1.35289)
(10.7142 -0.835582 1.45967)
(10.3633 -0.904901 1.37833)
(10.6238 -0.457283 1.34681)
(10.6809 -0.467705 1.27831)
(10.8446 -0.367532 1.04587)
(10.8681 -0.402262 1.03512)
(10.9773 -0.665309 1.07588)
(10.4761 -0.969909 1.3474)
(10.7905 -0.56105 1.01142)
(10.7264 -0.767075 1.03032)
(10.7822 -0.772769 1.04986)
(12.0883 0.292962 0.469309)
(12.133 0.295932 0.4815)
(12.1786 0.253374 0.4427)
(12.0407 0.354472 0.385896)
(11.8846 0.482542 0.495377)
(12.0738 0.176373 0.424939)
(12.0229 0.185338 0.422813)
(12.1954 0.360024 0.449005)
(12.1094 0.416599 0.516572)
(12.0696 0.433428 0.399714)
(11.9465 0.495294 0.49075)
(12.0486 0.376887 0.524567)
(12.0019 0.350869 0.495435)
(11.9106 0.33117 0.527134)
(11.9864 0.281393 0.442568)
(12.1258 0.185235 0.426192)
(12.1028 0.234674 0.410248)
(12.0468 0.232506 0.431605)
(12.119 0.347432 0.421541)
(10.2832 -0.213798 -0.463492)
(10.2665 -0.203406 -0.441915)
(10.2642 -0.182896 -0.34517)
(10.3 -0.280894 -0.539183)
(10.3075 -0.227827 -0.467143)
(10.259 -0.251203 -0.445249)
(10.3658 -0.3138 -0.532777)
(10.3654 -0.22026 -0.447195)
(10.2672 -0.239477 -0.400213)
(10.3452 -0.210371 -0.339137)
(10.2845 -0.272383 -0.478524)
(10.3531 -0.295542 -0.471481)
(10.3116 -0.267714 -0.389051)
(10.3274 -0.290647 -0.4209)
(9.97173 -0.33287 -0.300522)
(9.9821 -0.304393 -0.288076)
(10.0376 -0.342514 -0.267376)
(9.99135 -0.390792 -0.29423)
(10.0114 -0.301568 -0.264206)
(10.0363 -0.412771 -0.320169)
(10.1043 -0.328205 -0.27201)
(10.1039 -0.228315 -0.272491)
(10.0862 -0.252936 -0.289046)
(10.1756 -0.237069 -0.251507)
(10.1386 -0.243885 -0.25109)
(10.0291 -0.369072 -0.360116)
(10.1701 -0.265091 -0.280677)
(10.1404 -0.233769 -0.280267)
(10.1437 -0.257735 -0.301967)
(10.1601 -0.224825 -0.238982)
(10.1389 -0.22218 -0.238661)
(10.1571 -0.276481 -0.306215)
(11.7091 1.14419 0.0445884)
(11.4931 1.29842 -0.201174)
(11.1649 1.50527 -0.417406)
(12.0719 0.558323 -0.171409)
(12.0317 0.740646 -0.117725)
(11.8161 1.0141 -0.146289)
(11.8926 0.877463 0.00315911)
(12.1773 0.506291 -0.140499)
(12.0562 0.721698 -0.0848687)
(11.3976 1.16937 -0.489136)
(11.8204 0.874528 -0.323424)
(8.60262 -0.0754405 -1.26508)
(8.65928 0.00823251 -1.13217)
(8.62928 0.247673 -1.08426)
(8.63678 0.11843 -1.28086)
(7.98042 0.170597 -1.52007)
(7.6484 0.113627 -1.45348)
(7.49188 0.0487964 -1.72516)
(7.24026 -0.100607 -1.7148)
(8.74302 -0.209623 -1.33028)
(8.85175 -0.236381 -1.26732)
(8.43923 0.0785251 -1.11219)
(7.73616 -0.408251 -1.49799)
(7.70984 -0.546507 -1.64831)
(7.81135 0.0022454 -1.3246)
(7.69632 -0.352704 -1.62798)
(7.61685 -0.1918 -1.42613)
(7.2994 -0.223475 -1.85056)
(8.77728 -0.137793 -1.30386)
(8.46705 -0.563233 -1.60454)
(8.76255 -0.469967 -1.48976)
(8.33863 -0.389971 -1.65651)
(12.3461 -0.0641255 0.439897)
(12.3702 -0.056886 0.441566)
(12.3556 -0.0264753 0.419364)
(12.3793 -0.0375888 0.432852)
(12.3484 -0.0411788 0.426282)
(12.3416 -0.0757005 0.469657)
(12.3307 -0.0708539 0.453759)
(12.3702 -0.0477053 0.454648)
(12.3446 -0.0311465 0.439088)
(12.2526 -0.0529113 0.45944)
(12.256 -0.0705449 0.481027)
(12.2248 -0.0541986 0.478494)
(12.3595 -0.0557265 0.4567)
(12.2614 -0.0402678 0.4425)
(12.2212 -0.0462407 0.457657)
(12.2786 -0.0542637 0.470402)
(12.2297 -0.0347999 0.444159)
(11.3361 -0.131447 1.27555)
(11.1458 -0.269112 1.34572)
(11.0907 -0.514099 1.50689)
(10.7275 -0.433903 1.74938)
(11.3519 -0.0616872 1.27865)
(11.2079 -0.192562 1.38001)
(10.6039 0.311146 1.22717)
(10.6442 0.00954146 1.56945)
(11.2258 -0.329142 1.41958)
(10.6906 -0.162678 1.61675)
(10.709 0.21847 1.47642)
(9.77614 0.294521 0.426886)
(9.79427 0.328989 0.34756)
(9.74783 0.36492 0.36666)
(8.56912 0.220144 0.0898115)
(8.87898 0.403069 0.335434)
(7.88948 0.185618 -0.105981)
(7.26823 0.12812 -0.234543)
(7.43334 0.182464 0.178511)
(8.45197 0.52591 0.362878)
(9.04647 0.427854 0.291562)
(7.13067 -0.0117425 -0.231489)
(7.84276 0.139716 -0.136797)
(7.10819 0.181963 -0.0400686)
(10.406 -0.188814 -0.203135)
(10.3695 -0.165163 -0.185259)
(10.4053 -0.168209 -0.154055)
(10.4331 -0.178979 -0.162464)
(10.3952 -0.19563 -0.219)
(10.3659 -0.175832 -0.197724)
(10.3851 -0.193054 -0.233392)
(10.3567 -0.179652 -0.224975)
(10.3868 -0.156574 -0.138164)
(10.4261 -0.177523 -0.159819)
(10.3295 -0.152245 -0.173894)
(10.3448 -0.154722 -0.172114)
(10.437 -0.176363 -0.143747)
(10.3423 -0.170991 -0.204064)
(10.401 -0.160256 -0.12488)
(10.3769 -0.147418 -0.138756)
(10.3199 -0.146501 -0.154235)
(10.3371 -0.144762 -0.144239)
(10.3575 -0.141809 -0.126272)
(10.3641 -0.151354 -0.118211)
(10.3627 -0.153836 -0.134788)
(10.3313 -0.149889 -0.160165)
(10.9079 -0.618068 -0.67034)
(10.9667 -0.483475 -0.559411)
(10.8318 -0.47724 -0.784132)
(10.9031 -0.389354 -0.591715)
(10.9123 -0.457589 -0.499649)
(10.7707 -0.60339 -0.675391)
(10.777 -0.433587 -0.811162)
(10.8432 -0.359085 -0.561327)
(10.7614 -0.376278 -0.672478)
(10.7064 -0.544502 -0.625699)
(10.7238 -0.465866 -0.488981)
(10.7854 -0.506922 -0.518588)
(10.7057 -0.502659 -0.842536)
(10.8064 -0.360977 -0.557058)
(10.7284 -0.350591 -0.651856)
(10.6404 -0.495992 -0.846953)
(10.652 -0.388244 -0.732826)
(10.7031 -0.38955 -0.497867)
(10.8421 -0.420013 -0.484876)
(10.7814 -0.385034 -0.501635)
(11.5164 0.222358 0.19489)
(11.5381 0.217485 0.188786)
(11.6375 0.252226 0.216082)
(11.6455 0.285833 0.292505)
(11.4764 0.205532 0.190438)
(11.5043 0.212107 0.192738)
(11.6098 0.269082 0.311568)
(11.5917 0.263841 0.25928)
(11.5386 0.204713 0.262329)
(11.4574 0.18972 0.348044)
(11.4943 0.203482 0.304533)
(11.4522 0.191288 0.219041)
(11.4126 0.183411 0.222904)
(11.4752 0.203451 0.201599)
(11.5296 0.209883 0.3018)
(11.5015 0.187596 0.366758)
(11.4125 0.172412 0.31016)
(11.4319 0.19604 0.208704)
(11.5355 0.249732 0.276153)
(11.5369 0.247505 0.332386)
(11.4483 0.215369 0.289652)
(11.502 0.24226 0.319138)
(10.6696 0.0939402 1.41515)
(10.7394 0.140189 1.52521)
(11.3152 0.00763434 0.9683)
(11.3782 0.0599214 0.991988)
(11.1817 -0.0640788 1.12316)
(11.1993 -0.0622022 1.24847)
(11.151 -0.0339671 1.01017)
(11.1258 -0.080483 1.11881)
(10.9986 -0.041616 1.1119)
(10.7312 0.0285334 1.29935)
(10.755 0.058126 1.33273)
(10.8857 0.114638 1.29311)
(11.3099 0.0982722 1.13899)
(11.3032 0.0635864 0.911853)
(11.2629 0.027539 0.910326)
(10.9409 0.0737684 1.20837)
(11.216 0.112676 1.11003)
(11.528 0.957458 0.364246)
(11.5515 1.05585 0.348729)
(11.656 0.60121 0.499805)
(11.613 0.719783 0.342792)
(11.6404 0.620758 0.424859)
(11.7713 0.625851 0.443398)
(11.7346 0.534771 0.412171)
(11.6414 0.750007 0.232629)
(11.6118 0.7337 0.227762)
(11.6054 0.908242 0.141859)
(11.7051 0.871285 0.161847)
(11.7348 0.632298 0.385835)
(11.8073 1.03205 0.152457)
(11.7213 1.06095 0.142391)
(10.9171 0.762929 -0.454932)
(10.8641 0.711806 -0.314586)
(10.8114 0.668017 -0.313206)
(10.8611 0.702112 -0.484362)
(10.798 0.700123 -0.491091)
(10.9086 0.578312 -0.353716)
(10.8526 0.522007 -0.326778)
(10.9436 0.630049 -0.363938)
(10.9029 0.568984 -0.363834)
(10.8348 0.525824 -0.335443)
(11.9671 -0.234417 0.785287)
(11.9407 -0.276797 0.792364)
(11.8568 -0.200745 0.807922)
(11.868 -0.226281 0.780651)
(11.9701 -0.325653 0.873066)
(11.997 -0.333628 0.906804)
(11.9024 -0.228124 0.797005)
(11.9096 -0.172757 0.790701)
(11.93 -0.311791 0.881871)
(11.863 -0.139471 0.803)
(11.8848 -0.165842 0.845114)
(11.8918 -0.130989 0.848745)
(11.8754 -0.116133 0.803968)
(11.9311 -0.230258 0.919394)
(11.8944 -0.108101 0.805999)
(11.9087 -0.117286 0.843993)
(11.9586 -0.226569 0.9275)
(10.211 -0.891432 -0.332824)
(10.052 -0.857808 -0.257309)
(9.73394 -0.566247 -0.39113)
(9.19981 -0.710987 -0.6577)
(9.29246 -0.7255 -0.764165)
(9.77077 -0.578563 -0.526733)
(9.80048 -0.92288 -1.00106)
(9.88078 -0.931913 -1.01603)
(9.8388 -0.871715 -1.0505)
(9.6924 -0.844146 -1.02933)
(9.7587 -0.60458 -0.335504)
(10.0083 -0.746144 -0.410158)
(10.2316 -0.984058 -0.4081)
(10.258 -0.921688 -0.426354)
(9.5504 -0.902961 -0.849397)
(9.63858 -0.791323 -0.985864)
(9.26594 -0.706734 -0.859095)
(9.94469 -0.688427 -0.54504)
(10.234 -0.987899 -0.527256)
(10.058 -0.834591 -0.659428)
(11.694 -0.0547288 0.50218)
(11.5458 -0.12641 0.500438)
(11.5355 -0.0737216 0.482987)
(11.6508 -0.0446884 0.500231)
(11.5372 -0.163951 0.519658)
(11.2675 -0.164907 0.52321)
(11.5051 -0.227085 0.507356)
(11.7347 -0.0793545 0.46231)
(11.7137 -0.0577062 0.488153)
(11.6706 -0.124579 0.49302)
(11.3228 -0.260749 0.451914)
(11.2496 -0.189687 0.519416)
(11.6761 -0.0433651 0.493817)
(11.4519 -0.15769 0.496989)
(11.4666 -0.188193 0.476813)
(11.2267 -0.244313 0.480224)
(5.73877 -1.77022 -0.170636)
(5.3636 -1.75103 -0.376685)
(4.89812 -1.77887 -0.507526)
(5.60998 -2.03651 -0.44719)
(8.3046 -1.99276 -0.204114)
(7.00032 -1.86251 -0.307201)
(9.77752 -1.37674 0.455487)
(8.32704 -1.15741 0.521866)
(7.2749 -1.41026 0.431224)
(7.55856 -1.46005 0.291144)
(9.53985 -1.32732 0.241953)
(8.12518 -1.36353 0.324462)
(7.58033 -1.11673 0.379746)
(12.2347 0.397175 1.28965)
(12.24 0.537559 1.31348)
(12.176 0.387641 1.25298)
(12.0414 0.203877 1.17541)
(12.0457 0.169243 1.04689)
(12.1223 0.274759 1.12728)
(12.1971 0.62652 1.30768)
(12.0545 0.650185 1.01416)
(12.0187 0.402642 0.990344)
(12.0052 0.265379 1.13359)
(12.0184 0.208305 0.952602)
(12.0335 0.718555 0.942287)
(11.7058 0.324636 -0.143392)
(11.6794 0.244271 -0.166493)
(11.7219 0.210772 -0.175553)
(11.7912 0.325066 -0.119112)
(11.7454 0.274913 -0.122691)
(11.779 0.252948 -0.138259)
(11.8992 0.300899 -0.140395)
(11.974 0.302249 -0.151596)
(11.8965 0.226375 -0.152717)
(11.8631 0.220436 -0.156591)
(11.8968 0.490534 -0.231254)
(11.9691 0.481388 -0.229248)
(11.8315 0.446104 -0.256204)
(11.8807 0.433465 -0.237426)
(11.7536 0.44401 -0.264169)
(11.7961 0.368217 -0.185323)
(11.8251 0.293886 -0.12495)
(11.8431 0.452809 -0.230246)
(11.8691 0.340004 -0.161708)
(11.538 -0.179135 0.892868)
(11.5457 -0.155689 1.0321)
(11.3723 -0.249193 0.878413)
(11.3582 -0.24396 0.939289)
(11.3704 -0.252399 0.919493)
(11.8451 -0.169713 0.827122)
(11.798 -0.118017 0.946622)
(11.5013 -0.192931 1.07892)
(11.5384 -0.255672 0.862429)
(11.996 -0.129443 0.887306)
(11.9934 -0.131661 0.813438)
(11.6759 -0.201687 1.12337)
(11.9754 -0.254415 0.781028)
(11.8127 -0.309208 0.852788)
(11.9946 -0.140716 0.77447)
(12.0858 -0.17399 0.872209)
(12.0752 -0.175444 0.786219)
(11.8811 -0.274108 0.923646)
(12.0435 -0.168563 0.76094)
(4.53717 -0.390333 -1.71226)
(4.77535 -0.44686 -1.73669)
(6.4683 -0.525097 -2.08399)
(5.82825 -0.664853 -2.04607)
(5.49117 -0.353558 -1.89075)
(5.55726 -0.334793 -1.77161)
(6.45573 -0.328618 -2.15951)
(6.74957 -0.343723 -2.15001)
(6.83847 -0.466576 -2.0871)
(7.05529 -0.109638 -1.91287)
(7.80675 0.0373021 -1.77827)
(7.74861 -0.135881 -1.89435)
(7.21804 -0.215171 -1.89166)
(7.4083 -0.322298 -2.00807)
(7.48008 -0.0433054 -1.68114)
(6.37091 -0.270051 -1.86783)
(10.9903 0.419587 -0.334506)
(10.926 0.388843 -0.269273)
(10.9796 0.383409 -0.342414)
(11.054 0.446307 -0.409639)
(10.9868 0.439299 -0.684798)
(10.9056 0.437828 -0.681101)
(10.9044 0.403642 -0.329354)
(10.9929 0.455273 -0.555496)
(10.9373 0.462214 -0.679484)
(10.8888 0.439602 -0.691009)
(10.8896 0.321736 -0.396641)
(10.9806 0.374285 -0.50141)
(10.9326 0.460763 -0.513683)
(10.8325 0.336779 -0.4063)
(10.7749 0.343694 -0.420771)