/*--------------------------------*- C++ -*----------------------------------*\
  =========                 |
  \\      /  F ield         | OpenFOAM: The Open Source CFD Toolbox
   \\    /   O peration     | Website:  https://openfoam.org
    \\  /    A nd           | Version:  10
     \\/     M anipulation  |
\*---------------------------------------------------------------------------*/
FoamFile
{
    format      ascii;
    class       volScalarField;
    location    "12";
    object      C;
}
// * * * * * * * * * * * * * * * * * * * * * * * * * * * * * * * * * * * * * //

dimensions      [1 3 0 0 0 0 0];

internalField   nonuniform List<scalar> 
75457
(
0.499844
0.499819
0.499889
0.499931
0.4999
0.4999
0.499894
0.499888
0.499984
0.499984
0.499984
0.499902
0.499903
0.499966
0.499174
0.499296
0.499643
0.499428
0.499378
0.499646
0.499476
0.499558
0.499307
0.499301
0.499566
0.498867
0.498803
0.486124
0.483409
0.486047
0.488307
0.482913
0.48316
0.492125
0.4921
0.492666
0.492111
0.481793
0.483687
0.492779
0.493213
0.492847
0.492648
0.497892
0.496838
0.498754
0.498755
0.497888
0.499975
0.499795
0.499776
0.49997
0.499968
0.499816
0.499873
0.499904
0.499928
0.499927
0.49998
0.499973
0.499958
0.499977
0.5
0.5
0.5
0.5
0.5
0.5
0.5
0.5
0.5
0.5
0.5
0.5
0.5
0.5
0.5
0.187689
0.0732162
0.0907568
0.196967
0.0911164
0.135534
0.0551455
0.0843322
0.077881
0.15389
0.194969
0.182541
0.242641
0.029484
0.0797986
0.198709
0.02957
0.5
0.5
0.5
0.5
0.5
0.5
0.5
0.5
0.5
0.5
0.5
0.5
0.5
0.5
0.5
0.5
0.5
0.5
0.5
0.5
0.5
0.5
0.5
0.5
0.5
0.5
0.5
0.5
0.5
0.5
0.5
0.5
0.5
0.5
0.5
0.5
0.5
0.5
0.5
0.5
0.5
0.5
0.5
0.5
0.5
0.5
0.5
0.5
0.5
0.5
0.5
0.5
0.5
0.5
0.5
0.5
0.5
0.5
0.5
0.5
0.5
0.5
0.5
0.5
0.5
0.5
0.5
0.5
0.5
0.5
0.5
0.5
0.5
0.5
0.5
0.5
0.5
0.5
0.5
0.5
0.5
0.5
0.5
0.5
0.5
0.5
0.5
0.5
0.5
0.5
0.5
0.5
0.5
0.5
0.5
0.5
0.498337
0.497964
0.497746
0.496589
0.495819
0.496253
0.5
0.5
0.5
0.5
0.5
0.5
0.5
0.5
0.5
0.5
0.5
0.499991
0.499995
0.499995
0.499991
0.49998
0.499995
0.499991
0.499981
0.499987
0.499995
0.499979
0.499989
0.499995
0.499991
0.5
0.5
0.5
0.5
0.5
0.5
0.5
0.5
0.5
0.5
0.5
0.5
0.5
0.5
0.499806
0.499719
0.499802
0.499879
0.499883
0.499782
0.499894
0.499796
0.499706
0.49983
0.499751
0.499901
0.499928
0.499718
0.499784
0.499911
0.499791
0.493551
0.493876
0.493846
0.493949
0.495532
0.49578
0.495936
0.497299
0.497297
0.497288
0.493529
0.49587
0.499309
0.499459
0.498447
0.499308
0.499446
0.499259
0.499273
0.499433
0.497834
0.497639
0.499286
0.497875
0.499271
0.5
0.5
0.5
0.5
0.5
0.5
0.5
0.5
0.5
0.5
0.5
0.5
0.5
0.5
0.5
0.48583
0.486234
0.482149
0.483799
0.48537
0.486769
0.486337
0.485641
0.486202
0.0331893
0.0344942
0.055132
0.0511055
0.0559642
0.0548985
0.0676579
0.078944
0.050549
0.0718468
0.0899045
0.0564278
0.0681485
0.215936
0.120235
0.0952968
0.172522
0.173093
0.154791
0.171975
0.0126019
0.0110922
0.0186697
0.00903446
0.5
0.5
0.5
0.5
0.5
0.5
0.5
0.5
0.5
0.5
0.5
0.5
0.5
0.5
0.5
0.5
0.5
0.306141
0.318032
0.307267
0.384951
0.315428
0.301596
0.308412
0.364683
0.315217
0.375661
0.361374
0.496345
0.49771
0.497686
0.49576
0.497705
0.490592
0.490669
0.495757
0.497693
0.495744
0.497699
0.499356
0.499684
0.499232
0.499691
0.4997
0.499464
0.499426
0.499355
0.499296
0.499573
0.499568
0.499429
0.499723
0.499755
0.499668
0.322093
0.268177
0.254401
0.291956
0.222189
0.499946
0.49995
0.499843
0.499927
0.499653
0.499654
0.499917
0.5
0.5
0.5
0.5
0.5
0.5
0.5
0.5
0.5
0.5
0.5
0.5
0.5
0.5
0.5
0.5
0.5
0.5
0.5
0.5
0.5
0.5
0.5
0.5
0.5
0.5
0.5
0.5
0.5
0.5
0.5
0.5
0.5
0.5
0.5
0.5
0.5
0.5
0.5
0.5
0.5
0.5
0.5
0.5
0.5
0.5
0.5
0.5
0.5
0.5
0.5
0.5
0.5
0.499995
0.499931
0.499939
0.499932
0.49994
0.499995
0.499959
0.499983
0.499945
0.499994
0.499963
0.499956
0.49998
0.499957
0.49998
0.499994
0.499902
0.499101
0.49906
0.49908
0.499973
0.499968
0.499137
0.499101
0.499993
0.499993
0.499787
0.499968
0.499793
0.499898
0.499973
0.499993
0.5
0.5
0.5
0.5
0.5
0.5
0.5
0.5
0.5
0.5
0.5
0.5
0.5
0.5
0.5
0.5
0.5
0.5
0.5
0.5
0.5
0.5
0.5
0.5
0.5
0.5
0.5
0.5
0.5
0.5
0.5
0.5
0.5
0.5
0.5
0.5
0.5
0.5
0.5
0.5
0.5
0.5
0.5
0.5
0.5
0.5
0.5
0.5
0.5
0.5
0.5
0.5
0.5
0.5
0.5
0.5
0.5
0.5
0.5
0.5
0.5
0.5
0.5
0.5
0.5
0.5
0.5
0.5
0.477095
0.478152
0.479392
0.476825
0.475005
0.476298
0.46699
0.467036
0.475226
0.477792
0.479539
0.476854
0.463155
0.467236
0.468199
0.468992
0.468055
0.468374
0.496434
0.49789
0.498077
0.499
0.497542
0.498968
0.49641
0.497754
0.497863
0.498958
0.4987
0.497702
0.498823
0.496372
0.49007
0.490809
0.488777
0.491843
0.488748
0.488563
0.487118
0.490776
0.491498
0.487699
0.487795
0.487253
0.49052
0.493121
0.49315
0.487827
0.492238
0.488733
0.5
0.5
0.5
0.5
0.5
0.5
0.5
0.5
0.5
0.5
0.5
0.5
0.487146
0.492876
0.486198
0.492498
0.486463
0.489656
0.487325
0.487646
0.488818
0.494649
0.495657
0.495163
0.493814
0.493897
0.495641
0.494081
0.497268
0.496705
0.497143
0.496888
0.494698
0.493213
0.489245
0.49491
0.494992
0.496866
0.497047
0.496067
0.489346
0.495925
0.494648
0.494609
0.5
0.5
0.5
0.5
0.5
0.5
0.5
0.5
0.5
0.5
0.5
0.5
0.5
0.5
0.5
0.5
0.5
0.5
0.5
0.495277
0.494998
0.496343
0.493772
0.495697
0.494133
0.495719
0.497434
0.495039
0.498111
0.494395
0.496465
0.496444
0.496645
0.465595
0.46334
0.479231
0.472196
0.47053
0.478999
0.488787
0.482533
0.478904
0.492992
0.490974
0.476464
0.491844
0.487814
0.488625
0.492414
0.491257
0.490122
0.499941
0.499893
0.499881
0.499981
0.499976
0.499909
0.49995
0.49998
0.499976
0.499895
0.499921
0.396411
0.397866
0.40213
0.399616
0.355416
0.338262
0.332681
0.312068
0.400561
0.404312
0.394532
0.357541
0.353053
0.358086
0.348397
0.352223
0.320671
0.405307
0.391218
0.400904
0.388488
0.499939
0.499942
0.499995
0.499983
0.499995
0.499944
0.49994
0.499999
0.5
0.499997
0.499992
0.499999
0.499999
0.499997
0.5
0.499999
0.5
0.496118
0.495544
0.494146
0.492389
0.495916
0.495432
0.492795
0.492644
0.494497
0.492431
0.493229
0.444101
0.442442
0.442304
0.389142
0.430019
0.355988
0.338039
0.387761
0.421496
0.428415
0.364863
0.37747
0.374097
0.499591
0.49958
0.499749
0.499762
0.499403
0.499445
0.499309
0.499276
0.499843
0.499815
0.499523
0.499571
0.499868
0.499341
0.499881
0.499796
0.499579
0.499668
0.499818
0.499864
0.499837
0.499547
0.499249
0.499662
0.49877
0.499685
0.499737
0.49862
0.498624
0.499683
0.499139
0.498507
0.499225
0.499302
0.497787
0.499621
0.499113
0.497305
0.498319
0.499437
0.499729
0.499668
0.499524
0.498842
0.497782
0.497959
0.499554
0.499009
0.497865
0.497575
0.499364
0.499364
0.499415
0.499532
0.499507
0.499013
0.499399
0.499299
0.499402
0.499018
0.497653
0.497871
0.498204
0.49775
0.491715
0.491961
0.497516
0.497117
0.496846
0.495995
0.497102
0.496834
0.495695
0.492302
0.491632
0.493142
0.496215
0.496942
0.497385
0.493133
0.494771
0.497607
0.497586
0.49818
0.498417
0.498541
0.498583
0.498944
0.498792
0.498804
0.498593
0.498645
0.498894
0.498286
0.498106
0.5
0.5
0.5
0.5
0.5
0.5
0.5
0.5
0.5
0.5
0.499651
0.499656
0.499749
0.499784
0.499158
0.498865
0.499748
0.499834
0.499055
0.4997
0.499494
0.4995
0.499742
0.498717
0.499745
0.499485
0.498595
0.495988
0.496126
0.494876
0.491709
0.491175
0.49397
0.494668
0.494495
0.492972
0.492144
0.495307
0.495354
0.496379
0.496012
0.493069
0.491375
0.490103
0.494651
0.49567
0.494319
0.5
0.5
0.5
0.5
0.5
0.5
0.5
0.5
0.5
0.5
0.5
0.5
0.5
0.5
0.5
0.5
0.377992
0.373947
0.369431
0.3741
0.43678
0.410549
0.454027
0.419681
0.396475
0.408367
0.453329
0.4177
0.401824
0.49209
0.491591
0.492911
0.494619
0.495849
0.494542
0.49166
0.494117
0.495301
0.49471
0.496918
0.494477
0.5
0.5
0.5
0.5
0.5
0.5
0.5
0.5
0.5
0.5
0.5
0.5
0.5
0.5
0.5
0.5
0.5
0.5
0.5
0.490467
0.489881
0.493894
0.493834
0.493821
0.494207
0.493043
0.491536
0.494305
0.497272
0.497303
0.492019
0.497471
0.4965
0.49672
0.498029
0.498322
0.496608
0.497845
0.149478
0.196295
0.253499
0.190826
0.191987
0.227176
0.226027
0.253761
0.272996
0.273778
0.335782
0.331629
0.307499
0.307644
0.324136
0.257028
0.5
0.5
0.5
0.5
0.5
0.5
0.5
0.5
0.5
0.5
0.5
0.5
0.5
0.5
0.5
0.5
0.459997
0.427467
0.467364
0.43262
0.460376
0.410847
0.489283
0.472617
0.492407
0.492447
0.489353
0.471561
0.429863
0.399849
0.460724
0.48917
0.488899
0.489232
0.471776
0.41927
0.5
0.5
0.5
0.5
0.5
0.5
0.5
0.5
0.5
0.5
0.5
0.5
0.5
0.5
0.5
0.5
0.5
0.5
0.5
0.5
0.5
0.5
0.5
0.499997
0.499993
0.499994
0.5
0.499992
0.499992
0.499995
0.499992
0.499998
0.499995
0.499996
0.499995
0.499997
0.499999
0.499996
0.499998
0.499997
0.499999
0.499998
0.499999
0.499999
0.499999
0.499971
0.49997
0.499958
0.499961
0.499991
0.499992
0.49994
0.499942
0.499968
0.499962
0.49999
0.499952
0.499959
0.499987
0.499974
0.499991
0.49999
0.499988
0.499987
0.499368
0.497298
0.497759
0.499413
0.499193
0.497567
0.497588
0.498736
0.498378
0.498064
0.499452
0.499469
0.498703
0.49887
0.498639
0.498884
0.499955
0.499911
0.49991
0.499879
0.499962
0.499948
0.499876
0.499912
0.499962
0.5
0.5
0.5
0.5
0.5
0.5
0.5
0.5
0.5
0.5
0.5
0.5
0.5
0.5
0.5
0.5
0.5
0.5
0.5
0.5
0.5
0.5
0.5
0.5
0.5
0.5
0.5
0.5
0.5
0.5
0.5
0.5
0.49999
0.499998
0.499998
0.499993
0.499997
0.499993
0.499999
0.499999
0.499999
0.49999
0.499994
0.499996
0.499998
0.499995
0.499997
0.499993
0.499997
0.49999
0.499996
0.499999
0.499999
0.499998
0.499995
0.499985
0.499989
0.499998
0.499997
0.499997
0.499997
0.499989
0.499988
0.499991
0.499983
0.499983
0.499994
0.499993
0.499992
0.499552
0.499655
0.499446
0.4995
0.499232
0.499219
0.499
0.499247
0.49923
0.499162
0.497557
0.497732
0.497819
0.498045
0.499269
0.498093
0.347501
0.36177
0.348908
0.390994
0.349735
0.360271
0.389676
0.337291
0.25793
0.5
0.5
0.499999
0.499989
0.499999
0.5
0.5
0.5
0.499989
0.499991
0.499998
0.49999
0.499965
0.499976
0.499928
0.499968
0.499916
0.499976
0.499978
0.499976
0.499912
0.499918
0.499922
0.499982
0.49993
0.499975
0.499976
0.499983
0.5
0.5
0.5
0.5
0.5
0.5
0.5
0.5
0.5
0.5
0.5
0.5
0.5
0.5
0.5
0.5
0.5
0.5
0.5
0.5
0.5
0.5
0.5
0.5
0.5
0.5
0.5
0.5
0.499998
0.499998
0.499998
0.499998
0.499998
0.499996
0.5
0.5
0.499995
0.499995
0.499995
0.5
0.5
0.499998
0.499999
0.499998
0.5
0.5
0.5
0.5
0.5
0.5
0.5
0.5
0.5
0.5
0.5
0.5
0.5
0.5
0.5
0.5
0.5
0.5
0.5
0.5
0.5
0.5
0.5
0.5
0.5
0.5
0.5
0.5
0.5
0.5
0.5
0.5
0.5
0.5
0.5
0.5
0.499698
0.499701
0.49967
0.499696
0.499534
0.499665
0.499707
0.49974
0.499714
0.499578
0.499677
0.499765
0.499816
0.49976
0.499822
0.499801
0.49976
0.499805
0.499843
0.499997
0.499999
0.499999
0.5
0.494873
0.494194
0.499965
0.499924
0.499998
0.499998
0.499981
0.499995
0.5
0.495595
0.491149
0.498557
0.499993
0.499989
0.499993
0.499981
0.493023
0.494747
0.489256
0.494963
0.492527
0.490927
0.490493
0.482781
0.494211
0.494016
0.489942
0.494039
0.485043
0.487367
0.483334
0.494001
0.493472
0.494286
0.488158
0.246619
0.287276
0.324967
0.317323
0.28192
0.254787
0.316831
0.338184
0.339331
0.335641
0.323431
0.30226
0.296948
0.330543
0.312574
0.298991
0.5
0.5
0.5
0.5
0.5
0.5
0.5
0.5
0.5
0.5
0.5
0.5
0.5
0.5
0.5
0.5
0.5
0.5
0.5
0.5
0.5
0.5
0.5
0.5
0.5
0.5
0.5
0.5
0.5
0.5
0.5
0.5
0.5
0.5
0.5
0.5
0.5
0.5
0.5
0.5
0.5
0.5
0.5
0.5
0.5
0.5
0.5
0.5
0.5
0.5
0.5
0.5
0.5
0.5
0.5
0.5
0.5
0.5
0.5
0.5
0.5
0.499999
0.499999
0.5
0.499999
0.499999
0.499999
0.499999
0.499999
0.5
0.5
0.5
0.5
0.5
0.5
0.5
0.5
0.5
0.5
0.5
0.5
0.5
0.5
0.5
0.5
0.5
0.5
0.5
0.5
0.5
0.5
0.5
0.5
0.5
0.5
0.5
0.5
0.5
0.5
0.5
0.5
0.5
0.5
0.5
0.5
0.5
0.5
0.5
0.5
0.5
0.5
0.5
0.5
0.5
0.5
0.5
0.5
0.5
0.5
0.5
0.5
0.5
0.5
0.5
0.5
0.5
0.5
0.5
0.5
0.5
0.5
0.5
0.5
0.5
0.5
0.5
0.5
0.5
0.5
0.5
0.5
0.5
0.5
0.5
0.5
0.5
0.5
0.5
0.5
0.5
0.5
0.5
0.5
0.5
0.5
0.5
0.5
0.5
0.5
0.5
0.5
0.5
0.5
0.5
0.5
0.5
0.5
0.5
0.5
0.5
0.5
0.5
0.5
0.5
0.5
0.5
0.5
0.5
0.5
0.5
0.5
0.5
0.5
0.5
0.5
0.5
0.5
0.499999
0.5
0.5
0.499999
0.5
0.499981
0.499956
0.499997
0.499977
0.49998
0.499992
0.499983
0.499978
0.499996
0.306819
0.308884
0.313355
0.296102
0.5
0.5
0.5
0.5
0.5
0.5
0.5
0.5
0.5
0.5
0.5
0.5
0.5
0.5
0.5
0.5
0.5
0.5
0.5
0.5
0.5
0.5
0.475143
0.484215
0.480521
0.472526
0.474023
0.485798
0.485105
0.482143
0.468572
0.476571
0.467901
0.472882
0.448729
0.448156
0.471034
0.475141
0.499999
0.499999
0.499999
0.499999
0.499994
0.499995
0.499998
0.499998
0.499999
0.499998
0.499998
0.499999
0.499998
0.499999
0.499994
0.499998
0.5
0.499999
0.499999
0.5
0.499999
0.499999
0.5
0.5
0.5
0.5
0.5
0.5
0.5
0.5
0.5
0.5
0.5
0.5
0.5
0.5
0.5
0.499999
0.499999
0.499999
0.5
0.43499
0.433327
0.431275
0.452631
0.433648
0.43257
0.454534
0.4367
0.436232
0.452
0.433225
0.418066
0.416034
0.417966
0.41628
0.43224
0.449084
0.449292
0.4412
0.442941
0.448806
0.428861
0.5
0.5
0.5
0.5
0.5
0.5
0.5
0.5
0.5
0.5
0.5
0.5
0.5
0.5
0.5
0.5
0.5
0.5
0.5
0.5
0.5
0.5
0.5
0.5
0.5
0.5
0.5
0.5
0.5
0.5
0.5
0.5
0.5
0.5
0.5
0.5
0.5
0.5
0.5
0.5
0.5
0.5
0.5
0.5
0.5
0.5
0.5
0.5
0.5
0.5
0.461391
0.454675
0.463863
0.455353
0.461999
0.476287
0.468558
0.478013
0.474696
0.482928
0.489865
0.489191
0.473439
0.484147
0.49037
0.481422
0.480518
0.494364
0.493405
0.497713
0.497806
0.498013
0.497972
0.494096
0.493968
0.495836
0.495731
0.497395
0.49819
0.49623
0.497926
0.496711
0.497765
0.497517
0.498023
0.497496
0.498395
0.498347
0.497928
0.487652
0.488687
0.490614
0.489512
0.490193
0.494213
0.49528
0.490595
0.490472
0.49732
0.49712
0.495674
0.494109
0.496959
0.497587
0.496912
0.495656
0.497562
0.408618
0.435886
0.44918
0.442081
0.453012
0.442674
0.407633
0.429606
0.437147
0.421726
0.445734
0.446676
0.437075
0.444753
0.394256
0.431109
0.424047
0.5
0.5
0.5
0.5
0.5
0.5
0.5
0.5
0.5
0.5
0.498573
0.499428
0.497698
0.497763
0.499839
0.499453
0.498228
0.498086
0.498061
0.498285
0.498763
0.49953
0.498352
0.499881
0.499736
0.498852
0.499549
0.4996
0.499999
0.499999
0.499999
0.499999
0.5
0.5
0.5
0.5
0.5
0.5
0.5
0.5
0.5
0.498637
0.498599
0.498422
0.498412
0.496945
0.497872
0.497851
0.498047
0.493709
0.493771
0.496003
0.496142
0.496956
0.496027
0.499667
0.499922
0.499177
0.499748
0.499951
0.49975
0.499379
0.499665
0.499887
0.499751
0.499888
0.49967
0.4996
0.499889
0.49939
0.0686694
0.0799472
0.068115
0.0618665
0.0961293
0.0794078
0.121927
0.148811
0.0592957
0.0585873
0.0973067
0.118295
0.117424
0.117611
0.103895
0.151241
0.13528
0.0997539
0.5
0.5
0.5
0.5
0.5
0.5
0.5
0.5
0.5
0.5
0.5
0.5
0.5
0.5
0.499999
0.5
0.5
0.5
0.5
0.5
0.5
0.5
0.5
0.499999
0.5
0.5
0.5
0.5
0.5
0.499999
0.5
0.5
0.20291
0.180137
0.16546
0.168489
0.195879
0.171199
0.159446
0.157963
0.132275
0.162134
0.163009
0.152565
0.139342
0.155439
0.133283
0.128402
0.130647
0.187904
0.5
0.5
0.5
0.5
0.5
0.5
0.5
0.5
0.5
0.5
0.5
0.5
0.5
0.5
0.5
0.5
0.5
0.5
0.5
0.499558
0.499541
0.499724
0.499681
0.498957
0.498918
0.498749
0.498435
0.498604
0.498659
0.499269
0.499369
0.499551
0.49941
0.498608
0.498525
0.498742
0.499132
0.5
0.5
0.5
0.5
0.5
0.5
0.5
0.5
0.5
0.5
0.5
0.5
0.5
0.5
0.5
0.5
0.5
0.5
0.5
0.5
0.5
0.5
0.5
0.5
0.5
0.5
0.5
0.5
0.5
0.5
0.5
0.5
0.5
0.5
0.5
0.5
0.5
0.5
0.5
0.5
0.5
0.5
0.5
0.5
0.5
0.5
0.5
0.5
0.5
0.5
0.5
0.5
0.5
0.5
0.5
0.5
0.5
0.5
0.5
0.5
0.5
0.5
0.5
0.5
0.5
0.5
0.5
0.5
0.5
0.5
0.5
0.5
0.5
0.5
0.5
0.5
0.5
0.5
0.5
0.5
0.499807
0.499803
0.499822
0.49994
0.499924
0.499887
0.499824
0.499886
0.499857
0.499909
0.499951
0.499823
0.49991
0.499927
0.499884
0.499741
0.499725
0.499662
0.499826
0.499713
0.499764
0.499728
0.499648
0.499751
0.499603
0.499799
0.499604
0.499704
0.499935
0.499959
0.499954
0.499886
0.49979
0.5
0.5
0.5
0.5
0.5
0.5
0.5
0.5
0.5
0.5
0.5
0.5
0.5
0.5
0.5
0.488017
0.489704
0.490743
0.49084
0.487097
0.490505
0.485482
0.482639
0.484531
0.5
0.5
0.5
0.5
0.5
0.5
0.5
0.5
0.5
0.5
0.5
0.5
0.5
0.5
0.5
0.5
0.5
0.5
0.5
0.5
0.5
0.5
0.5
0.5
0.5
0.5
0.5
0.5
0.5
0.5
0.5
0.5
0.5
0.5
0.5
0.5
0.5
0.5
0.5
0.5
0.5
0.5
0.5
0.5
0.5
0.5
0.5
0.5
0.5
0.5
0.5
0.5
0.5
0.5
0.5
0.5
0.5
0.5
0.5
0.5
0.5
0.5
0.5
0.5
0.5
0.5
0.5
0.5
0.498855
0.498762
0.498583
0.498698
0.499584
0.4994
0.499584
0.49959
0.49861
0.499795
0.499445
0.499039
0.499273
0.499887
0.499936
0.499526
0.499793
0.499673
0.499851
0.499937
0.499935
0.499923
0.499936
0.499527
0.499939
0.499764
0.499997
0.499996
0.499996
0.499996
0.499999
0.499999
0.499999
0.49999
0.499991
0.49999
0.499991
0.499994
0.499992
0.499996
0.499996
0.499996
0.499995
0.499994
0.5
0.5
0.5
0.5
0.5
0.5
0.5
0.5
0.5
0.5
0.5
0.5
0.5
0.5
0.5
0.5
0.5
0.5
0.5
0.5
0.5
0.5
0.5
0.5
0.5
0.5
0.489169
0.491928
0.490713
0.489279
0.490133
0.490761
0.489718
0.48945
0.489148
0.488415
0.488574
0.489473
0.48829
0.498339
0.499498
0.499602
0.49937
0.499251
0.49833
0.498235
0.498444
0.499578
0.499366
0.499211
0.499121
0.499411
0.499326
0.499233
0.499669
0.499881
0.499838
0.49942
0.499569
0.499886
0.499895
0.499904
0.499903
0.499912
0.499821
0.499836
0.499274
0.499732
0.499823
0.499655
0.499943
0.499976
0.499916
0.499961
0.49995
0.499985
0.499942
0.499869
0.499948
0.499981
0.499964
0.499944
0.499951
0.499872
0.397786
0.397835
0.423192
0.433426
0.410216
0.411027
0.396858
0.399306
0.410477
0.407448
0.396625
0.5
0.5
0.5
0.5
0.5
0.5
0.5
0.5
0.5
0.5
0.5
0.5
0.5
0.5
0.5
0.5
0.5
0.5
0.5
0.5
0.5
0.5
0.5
0.5
0.5
0.5
0.5
0.5
0.5
0.5
0.5
0.5
0.5
0.5
0.5
0.5
0.5
0.5
0.5
0.5
0.5
0.5
0.5
0.5
0.5
0.5
0.5
0.5
0.5
0.5
0.5
0.5
0.5
0.5
0.5
0.5
0.5
0.5
0.5
0.5
0.5
0.5
0.5
0.5
0.5
0.5
0.5
0.5
0.5
0.5
0.5
0.5
0.5
0.5
0.5
0.5
0.5
0.5
0.5
0.5
0.5
0.5
0.5
0.5
0.5
0.5
0.5
0.5
0.5
0.5
0.5
0.5
0.5
0.5
0.5
0.5
0.5
0.5
0.5
0.499767
0.499781
0.499753
0.499757
0.499915
0.499859
0.499906
0.499805
0.499984
0.499982
0.499942
0.499982
0.499964
0.499938
0.499982
0.499983
0.499916
0.499941
0.493364
0.485897
0.492066
0.491263
0.49246
0.488138
0.496202
0.496537
0.488121
0.496351
0.491238
0.484845
0.491534
0.491583
0.492064
0.493794
0.496512
0.492425
0.490678
0.496502
0.486364
0.492017
0.495091
0.496486
0.491845
0.487086
0.487079
0.499509
0.499401
0.49944
0.499591
0.499245
0.488546
0.484301
0.488178
0.495683
0.479871
0.497557
0.484554
0.411158
0.424455
0.466374
0.421034
0.406497
0.477703
0.443647
0.496845
0.373929
0.384808
0.44192
0.41974
0.37666
0.459479
0.445873
0.370538
0.373775
0.45392
0.464707
0.400783
0.418128
0.461036
0.456694
0.41296
0.404091
0.433526
0.5
0.5
0.5
0.5
0.5
0.5
0.5
0.5
0.5
0.5
0.5
0.5
0.5
0.5
0.5
0.5
0.5
0.5
0.5
0.5
0.4998
0.499765
0.499871
0.499895
0.499892
0.499914
0.499887
0.499855
0.499749
0.499814
0.499894
0.499881
0.499881
0.499887
0.499946
0.5
0.499941
0.499929
0.5
0.499997
0.499875
0.499985
0.5
0.499954
0.499936
0.499874
0.5
0.499998
0.5
0.5
0.5
0.5
0.482237
0.469974
0.470867
0.440479
0.429617
0.457029
0.462605
0.492146
0.432048
0.459827
0.487671
0.485292
0.487809
0.484676
0.47411
0.493957
0.44568
0.460636
0.494532
0.485673
0.492312
0.496379
0.5
0.5
0.5
0.5
0.5
0.5
0.5
0.5
0.5
0.5
0.5
0.5
0.5
0.5
0.5
0.5
0.5
0.5
0.5
0.5
0.5
0.5
0.5
0.5
0.5
0.5
0.5
0.5
0.5
0.5
0.5
0.5
0.5
0.5
0.5
0.398569
0.361094
0.38936
0.345607
0.360713
0.365021
0.370101
0.405174
0.499998
0.499997
0.5
0.5
0.5
0.499999
0.499999
0.499997
0.5
0.499999
0.499997
0.499999
0.5
0.5
0.5
0.5
0.5
0.5
0.5
0.5
0.5
0.5
0.5
0.5
0.5
0.5
0.5
0.5
0.5
0.5
0.5
0.499999
0.499998
0.499999
0.499999
0.5
0.499999
0.499997
0.499998
0.499997
0.499998
0.499998
0.499999
0.499997
0.499998
0.499998
0.499997
0.499997
0.498559
0.498947
0.499157
0.499445
0.498942
0.499251
0.499362
0.499381
0.499455
0.499536
0.4987
0.499477
0.499562
0.499496
0.498204
0.498771
0.499296
0.499398
0.49945
0.499507
0.498282
0.499414
0.5
0.5
0.5
0.5
0.5
0.5
0.5
0.5
0.5
0.5
0.5
0.5
0.5
0.5
0.5
0.5
0.332324
0.34122
0.350608
0.347486
0.327699
0.333928
0.363827
0.370225
0.368827
0.363768
0.387262
0.384631
0.347251
0.361742
0.353955
0.371543
0.333802
0.326147
0.49959
0.494408
0.495009
0.497842
0.497351
0.49725
0.492979
0.493465
0.49962
0.499613
0.497384
0.497277
0.498432
0.499415
0.499373
0.499328
0.5
0.5
0.5
0.5
0.5
0.5
0.5
0.5
0.5
0.5
0.5
0.5
0.5
0.5
0.5
0.5
0.5
0.5
0.5
0.5
0.499995
0.499995
0.499975
0.499982
0.5
0.499999
0.5
0.499999
0.499991
0.499989
0.5
0.499999
0.499999
0.499999
0.5
0.5
0.498342
0.498247
0.498398
0.497799
0.499334
0.497765
0.499305
0.497759
0.499295
0.499796
0.499429
0.499718
0.499436
0.499318
0.499074
0.499338
0.499432
0.498767
0.499163
0.499698
0.499406
0.499539
0.498756
0.499107
0.499638
0.499695
0.498959
0.49928
0.499647
0.49999
0.499978
0.499933
0.499956
0.499957
0.499963
0.499967
0.499993
0.499978
0.499992
0.499988
0.499986
0.499971
0.499939
0.499941
0.499983
0.49997
0.499956
0.499841
0.499873
0.499935
0.499926
0.499848
0.499902
0.49982
0.499864
0.499876
0.5
0.5
0.499998
0.5
0.5
0.5
0.5
0.5
0.499996
0.499985
0.499985
0.5
0.5
0.5
0.5
0.5
0.5
0.5
0.5
0.5
0.5
0.5
0.5
0.5
0.5
0.5
0.5
0.5
0.5
0.5
0.5
0.5
0.5
0.5
0.5
0.5
0.5
0.5
0.5
0.5
0.5
0.5
0.5
0.5
0.5
0.5
0.5
0.5
0.5
0.5
0.5
0.499431
0.499397
0.499388
0.499443
0.49982
0.499821
0.499887
0.499905
0.499454
0.499797
0.49985
0.499822
0.499864
0.499794
0.499774
0.5
0.5
0.5
0.5
0.5
0.5
0.5
0.5
0.5
0.5
0.5
0.5
0.5
0.5
0.5
0.5
0.5
0.465783
0.465573
0.468922
0.467274
0.477636
0.477199
0.471269
0.470217
0.480477
0.482067
0.467598
0.474064
0.4751
0.475472
0.479938
0.477297
0.474109
0.477099
0.47833
0.480784
0.481558
0.477507
0.49336
0.492734
0.486827
0.488734
0.488114
0.484487
0.494043
0.493259
0.492595
0.492152
0.494021
0.490598
0.485607
0.486276
0.486239
0.499999
0.5
0.499998
0.499998
0.5
0.499999
0.5
0.499999
0.5
0.499998
0.499999
0.499998
0.5
0.5
0.5
0.5
0.498829
0.498513
0.499332
0.498954
0.498784
0.497822
0.498014
0.497915
0.498382
0.498806
0.499086
0.498
0.499404
0.499265
0.497914
0.498899
0.49884
0.498934
0.5
0.5
0.5
0.5
0.5
0.5
0.5
0.5
0.5
0.5
0.5
0.5
0.5
0.5
0.5
0.5
0.5
0.5
0.5
0.5
0.5
0.5
0.5
0.5
0.5
0.5
0.5
0.5
0.5
0.5
0.5
0.5
0.5
0.5
0.5
0.5
0.5
0.5
0.5
0.5
0.5
0.5
0.5
0.5
0.5
0.5
0.5
0.498893
0.499021
0.498937
0.499105
0.495186
0.496112
0.496741
0.495003
0.495239
0.498537
0.497889
0.498893
0.499029
0.495766
0.497986
0.498189
0.495894
0.495932
0.493905
0.494646
0.494711
0.491285
0.491175
0.486134
0.486345
0.493157
0.487986
0.487822
0.486238
0.5
0.5
0.5
0.5
0.5
0.5
0.5
0.5
0.5
0.5
0.5
0.5
0.5
0.5
0.5
0.499688
0.499765
0.499887
0.49974
0.499999
0.5
0.5
0.5
0.5
0.5
0.5
0.5
0.5
0.499999
0.499947
0.5
0.5
0.5
0.5
0.5
0.5
0.5
0.5
0.5
0.5
0.5
0.5
0.5
0.5
0.5
0.5
0.5
0.499476
0.499427
0.499211
0.499217
0.499525
0.499608
0.499389
0.499141
0.499114
0.499316
0.498951
0.498776
0.499486
0.499097
0.498758
0.499107
0.498951
0.498567
0.441188
0.434037
0.429633
0.431282
0.44195
0.43524
0.440591
0.419295
0.424335
0.432859
0.429569
0.431173
0.441278
0.434895
0.432264
0.412815
0.398215
0.399145
0.394183
0.424298
0.499984
0.499977
0.499983
0.49998
0.499985
0.496874
0.496874
0.496353
0.496308
0.497822
0.497827
0.498204
0.498251
0.495388
0.495919
0.496086
0.496998
0.497954
0.497256
0.499405
0.499396
0.499835
0.499843
0.499414
0.499407
0.499819
0.49982
0.49984
0.499633
0.498761
0.5
0.5
0.5
0.5
0.5
0.5
0.5
0.5
0.5
0.5
0.5
0.499059
0.498772
0.499155
0.499204
0.499156
0.49909
0.498808
0.499365
0.499222
0.499089
0.499188
0.499009
0.499581
0.499564
0.499395
0.5
0.5
0.5
0.5
0.5
0.5
0.5
0.5
0.5
0.5
0.5
0.5
0.5
0.5
0.5
0.5
0.5
0.5
0.5
0.5
0.5
0.499852
0.499852
0.499878
0.499875
0.499897
0.499922
0.5
0.5
0.5
0.5
0.5
0.5
0.499999
0.499975
0.5
0.499991
0.499977
0.5
0.5
0.5
0.5
0.5
0.5
0.5
0.5
0.5
0.5
0.5
0.5
0.5
0.5
0.5
0.5
0.5
0.5
0.5
0.5
0.5
0.5
0.5
0.5
0.5
0.5
0.5
0.5
0.5
0.5
0.5
0.5
0.5
0.5
0.499979
0.499991
0.499984
0.49999
0.49996
0.499955
0.499997
0.499955
0.499958
0.499995
0.499996
0.499958
0.499956
0.499995
0.5
0.5
0.5
0.5
0.5
0.5
0.5
0.5
0.5
0.5
0.5
0.490243
0.489089
0.483404
0.494034
0.488849
0.485965
0.487929
0.486381
0.482833
0.489166
0.490732
0.492775
0.492636
0.493755
0.492736
0.5
0.5
0.5
0.5
0.5
0.5
0.5
0.5
0.5
0.5
0.5
0.5
0.5
0.5
0.5
0.5
0.5
0.5
0.499829
0.499774
0.499874
0.499871
0.499889
0.499653
0.499537
0.499602
0.499884
0.499876
0.499772
0.499955
0.49993
0.499624
0.499722
0.499547
0.499584
0.499531
0.49995
0.499929
0.499948
0.5
0.5
0.5
0.5
0.5
0.5
0.5
0.5
0.5
0.5
0.5
0.5
0.5
0.5
0.5
0.5
0.5
0.5
0.5
0.5
0.5
0.5
0.5
0.5
0.5
0.5
0.5
0.5
0.5
0.5
0.5
0.5
0.5
0.5
0.5
0.5
0.5
0.5
0.5
0.5
0.354258
0.325518
0.370895
0.36512
0.333941
0.298578
0.30874
0.326238
0.32448
0.32893
0.294142
0.356028
0.257513
0.160315
0.248027
0.219605
0.322897
0.463307
0.457466
0.462342
0.465977
0.450357
0.433168
0.450533
0.436084
0.464006
0.447582
0.453404
0.428168
0.45566
0.438552
0.425854
0.5
0.5
0.5
0.5
0.5
0.5
0.5
0.5
0.5
0.5
0.5
0.5
0.5
0.5
0.5
0.5
0.5
0.5
0.5
0.5
0.5
0.5
0.5
0.5
0.5
0.5
0.5
0.5
0.5
0.5
0.5
0.5
0.5
0.5
0.5
0.5
0.5
0.5
0.5
0.5
0.5
0.5
0.5
0.5
0.499933
0.485991
0.486215
0.486326
0.499401
0.496259
0.499934
0.498501
0.499645
0.499941
0.499948
0.499936
0.499938
0.499942
0.499944
0.499874
0.499797
0.499797
0.49972
0.499727
0.499852
0.499853
0.499774
0.499929
0.499802
0.499808
0.499919
0.5
0.5
0.5
0.5
0.5
0.5
0.5
0.5
0.5
0.5
0.5
0.5
0.5
0.5
0.5
0.5
0.5
0.5
0.5
0.5
0.5
0.5
0.5
0.5
0.5
0.5
0.5
0.5
0.5
0.5
0.5
0.49999
0.499988
0.499983
0.499984
0.499982
0.499984
0.499989
0.499982
0.499986
0.499983
0.5
0.5
0.5
0.5
0.5
0.5
0.5
0.5
0.5
0.5
0.5
0.5
0.5
0.5
0.5
0.5
0.5
0.5
0.5
0.5
0.5
0.5
0.5
0.5
0.5
0.5
0.5
0.5
0.5
0.5
0.5
0.5
0.5
0.5
0.5
0.5
0.5
0.5
0.5
0.5
0.5
0.5
0.5
0.5
0.5
0.5
0.5
0.5
0.5
0.5
0.5
0.5
0.5
0.5
0.5
0.5
0.5
0.5
0.5
0.5
0.5
0.5
0.5
0.5
0.5
0.5
0.5
0.5
0.5
0.5
0.5
0.5
0.5
0.5
0.5
0.5
0.5
0.5
0.5
0.5
0.5
0.5
0.5
0.5
0.5
0.5
0.5
0.5
0.5
0.5
0.5
0.5
0.5
0.5
0.5
0.5
0.5
0.5
0.5
0.5
0.5
0.5
0.5
0.5
0.5
0.5
0.5
0.5
0.5
0.5
0.5
0.5
0.5
0.5
0.5
0.5
0.5
0.5
0.5
0.5
0.5
0.5
0.5
0.499999
0.499999
0.5
0.5
0.5
0.5
0.499999
0.499994
0.499993
0.499984
0.499983
0.5
0.499993
0.5
0.499997
0.499994
0.5
0.5
0.5
0.5
0.5
0.5
0.5
0.5
0.5
0.5
0.5
0.5
0.5
0.5
0.5
0.5
0.5
0.5
0.5
0.5
0.5
0.5
0.5
0.5
0.5
0.5
0.5
0.5
0.5
0.5
0.5
0.5
0.5
0.5
0.5
0.5
0.5
0.5
0.5
0.5
0.5
0.5
0.5
0.5
0.5
0.5
0.5
0.5
0.5
0.5
0.5
0.5
0.5
0.5
0.5
0.5
0.5
0.5
0.5
0.5
0.5
0.5
0.5
0.5
0.5
0.5
0.5
0.5
0.5
0.5
0.5
0.5
0.5
0.5
0.5
0.5
0.5
0.5
0.5
0.5
0.5
0.5
0.5
0.5
0.5
0.5
0.5
0.5
0.5
0.5
0.5
0.5
0.5
0.5
0.5
0.5
0.5
0.5
0.5
0.5
0.5
0.5
0.5
0.5
0.5
0.5
0.5
0.5
0.5
0.5
0.5
0.5
0.5
0.5
0.5
0.5
0.5
0.498237
0.498451
0.498986
0.499209
0.498844
0.499642
0.499641
0.499257
0.49973
0.499659
0.499368
0.499358
0.49927
0.498919
0.498313
0.498684
0.499651
0.499052
0.499632
0.499627
0.499649
0.498951
0.499029
0.498439
0.499541
0.499624
0.49955
0.499633
0.499643
0.499553
0.499565
0.499659
0.499644
0.499615
0.499516
0.499572
0.499599
0.5
0.5
0.5
0.5
0.5
0.5
0.5
0.5
0.5
0.5
0.5
0.5
0.5
0.5
0.5
0.5
0.49998
0.499988
0.499987
0.499937
0.499968
0.499938
0.499966
0.499985
0.499986
0.499932
0.499928
0.499962
0.499924
0.499949
0.499998
0.499999
0.499992
0.499995
0.499999
0.499999
0.499998
0.5
0.499992
0.499995
0.499999
0.5
0.5
0.499997
0.5
0.5
0.499999
0.499991
0.499995
0.499993
0.499987
0.499986
0.499993
0.499993
0.499984
0.499984
0.499951
0.499967
0.499966
0.499962
0.499985
0.499981
0.499991
0.49999
0.499975
0.499986
0.499989
0.499985
0.499986
0.499986
0.5
0.5
0.5
0.5
0.5
0.5
0.5
0.5
0.5
0.5
0.5
0.5
0.5
0.5
0.5
0.5
0.5
0.5
0.5
0.5
0.5
0.5
0.5
0.5
0.5
0.5
0.5
0.5
0.5
0.5
0.5
0.5
0.5
0.5
0.5
0.5
0.5
0.377921
0.37552
0.379772
0.361811
0.35909
0.351329
0.341698
0.335593
0.333376
0.340034
0.354385
0.336361
0.443337
0.439431
0.480694
0.479619
0.414057
0.396318
0.488934
0.488517
0.4892
0.489318
0.490015
0.481454
0.48322
0.483578
0.234079
0.218351
0.0888076
0.220297
0.377518
0.34475
0.39616
0.353344
0.40296
0.340592
0.28404
0.393627
0.330163
0.346024
0.336134
0.349927
0.38925
0.342985
0.0173746
0.0239118
0.0242819
0.0305799
0.0270146
0.0152106
0.0235971
0.0485026
0.0427736
0.0099749
0.0138207
0.00855753
0.0172454
0.0153416
0.016098
0.0247448
0.0313986
0.0145481
0.5
0.5
0.5
0.5
0.5
0.5
0.5
0.5
0.5
0.5
0.5
0.5
0.499999
0.5
0.499999
0.499999
0.499997
0.499997
0.499996
0.499997
0.499999
0.499998
0.5
0.499999
0.499996
0.499997
0.499999
0.499998
0.499998
0.499996
0.499997
0.499998
0.499993
0.499998
0.499998
0.499998
0.499993
0.499996
0.499992
0.499996
0.499998
0.499982
0.499981
0.499996
0.499985
0.499981
0.499988
0.499989
0.499985
0.499981
0.499997
0.499997
0.499993
0.5
0.499994
0.499993
0.499998
0.499998
0.5
0.499998
0.499999
0.499995
0.499999
0.499999
0.499995
0.499996
0.499998
0.499999
0.5
0.499999
0.499999
0.5
0.5
0.233399
0.235084
0.242079
0.269421
0.265796
0.191772
0.258959
0.284646
0.214237
0.173233
0.236328
0.284956
0.429991
0.438957
0.477072
0.477373
0.444108
0.438075
0.425081
0.464833
0.46374
0.433828
0.420301
0.5
0.5
0.5
0.5
0.5
0.5
0.5
0.5
0.5
0.5
0.5
0.5
0.5
0.5
0.496289
0.491948
0.493186
0.490657
0.476071
0.482732
0.470577
0.490251
0.495666
0.497421
0.485243
0.473906
0.497458
0.488393
0.478131
0.479948
0.472142
0.472628
0.480711
0.491601
0.494473
0.482354
0.494932
0.496538
0.488001
0.487127
0.491095
0.495643
0.495198
0.492127
0.493088
0.493995
0.49589
0.495694
0.495549
0.496877
0.496527
0.495503
0.496436
0.495551
0.496664
0.497535
0.497938
0.497955
0.495811
0.497781
0.496498
0.497211
0.496354
0.495757
0.496941
0.496402
0.494877
0.490798
0.490808
0.495071
0.492383
0.492721
0.357496
0.35747
0.355243
0.274463
0.268587
0.334828
0.291048
0.292252
0.341801
0.349781
0.338068
0.329491
0.495697
0.49586
0.495466
0.495442
0.493636
0.495673
0.49332
0.49407
0.493542
0.494872
0.493309
0.493261
0.493035
0.494033
0.493021
0.49299
0.499999
0.499999
0.499999
0.499998
0.499999
0.499999
0.5
0.499999
0.499998
0.499999
0.5
0.499999
0.499999
0.499999
0.5
0.499998
0.5
0.5
0.494363
0.494724
0.48683
0.307232
0.4984
0.498166
0.497894
0.3881
0.435294
0.392498
0.0759717
0.499416
0.492167
0.499982
0.5
0.5
0.5
0.5
0.5
0.5
0.5
0.5
0.5
0.499947
0.5
0.494114
0.5
0.49686
0.499604
0.499503
0.491954
0.492924
0.497763
0.492734
0.491696
0.497806
0.108931
0.15019
0.369287
0.48864
0.497683
0.137005
0.238863
0.499481
0.499486
0.149178
0.198217
0.483894
0.450007
0.00507309
0.5
0.499599
0.5
0.499632
0.499671
0.0259337
0.5
0.0878808
0.380367
0.499393
0.499982
0.499997
0.499997
0.499997
0.246699
0.303347
0.5
0.499998
0.298562
0.5
0.499997
0.248795
0.499972
0.499948
0.5
0.113831
0.49996
0.5
0.0946254
0.5
0.470132
0.5
0.5
0.5
0.5
0.5
0.5
0.487261
0.499983
0.499986
0.5
0.499891
0.5
0.499991
0.5
0.5
0.5
0.499902
0.5
0.5
0.46607
0.487354
0.5
0.5
0.5
0.49851
0.5
0.336443
0.499944
0.499906
0.474148
0.334706
0.5
0.499812
0.47516
0.32809
0.499742
0.5
0.5
0.475837
0.5
0.499713
0.499586
0.358714
0.499999
0.499989
0.5
0.499999
0.362487
0.5
0.499474
0.265937
0.5
0.5
0.5
0.5
0.5
0.5
0.5
0.498618
0.5
0.497903
0.5
0.5
0.5
0.498217
0.5
0.5
0.4982
0.5
0.498037
0.5
0.5
0.49793
0.49967
0.5
0.499995
0.5
0.5
0.5
0.5
0.5
0.5
0.5
0.5
0.5
0.5
0.5
0.5
0.5
0.5
0.5
0.5
0.5
0.5
0.5
0.5
0.5
0.5
0.5
0.5
0.5
0.5
0.5
0.5
0.5
0.5
0.5
0.5
0.5
0.5
0.5
0.5
0.5
0.5
0.5
0.5