/*--------------------------------*- C++ -*----------------------------------*\
  =========                 |
  \\      /  F ield         | OpenFOAM: The Open Source CFD Toolbox
   \\    /   O peration     | Website:  https://openfoam.org
    \\  /    A nd           | Version:  10
     \\/     M anipulation  |
\*---------------------------------------------------------------------------*/
FoamFile
{
    format      ascii;
    class       volScalarField;
    location    "12";
    object      eff_dif;
}
// * * * * * * * * * * * * * * * * * * * * * * * * * * * * * * * * * * * * * //

dimensions      [0 2 -1 0 0 0 0];

internalField   nonuniform List<scalar> 
75457
(
-0.0339352
-0.0308827
-0.0267149
-0.0245521
-0.0201957
-0.0212385
-0.0297919
-0.0293245
-0.019213
-0.0139147
-0.0176959
-0.0191625
-0.0184175
-0.0162851
-0.00386864
-0.00431658
-0.00404634
-0.00418293
-0.00466382
-0.00419237
-0.00366437
-0.00435585
-0.00436198
-0.00464616
-0.00443621
-0.0047446
-0.00445768
-0.00114212
-0.00115316
-0.000775759
-0.000461263
-0.000674804
-0.000759254
-0.000894057
-0.000320291
-0.00122545
-0.00112524
-0.00139421
-0.0014878
-0.000535197
-0.000740721
-0.000524522
-0.000944858
-0.0110686
-0.0110241
-0.0102183
-0.0103012
-0.0106902
-0.00564082
-0.0061778
-0.00654039
-0.00595325
-0.00602799
-0.00616729
-0.00654418
-0.00664732
-0.00637108
-0.00658997
-0.00595969
-0.0061974
-0.00602755
-0.00592457
0.0306403
0.0309016
0.0306408
0.0309662
0.0311916
0.0312201
0.0308797
0.030918
0.0311776
0.030969
0.0307139
0.030958
0.0309478
0.030639
0.0308375
-0.00844831
-0.00935436
-0.00788903
-0.00944462
-0.0108532
-0.00607927
-0.00631884
-0.00831426
-0.00893224
-0.00860843
-0.00855895
-0.00651755
-0.00712846
-0.00628589
-0.00598042
-0.00681578
-0.00612115
-0.00716318
-0.00732667
-0.00735686
-0.0077094
-0.00730346
-0.00712648
-0.00832607
-0.00754663
0.0311283
0.0310168
0.0312792
0.0312954
0.0311604
0.031011
0.0309304
0.0313835
0.0313854
0.0309973
0.0310094
0.0216904
0.0223541
0.0248255
0.0243976
0.0217537
0.0233382
0.0233696
0.0228378
0.0231962
0.0248918
0.0246755
0.0252206
0.0257607
0.0245097
0.0239467
0.0227462
0.0251737
0.0241664
0.0131987
0.0131604
0.0125779
0.0134714
0.0130624
0.0145983
0.0142815
0.014169
0.0141583
0.00728101
0.00682141
0.00738666
0.00693361
0.00636726
0.00687747
0.00689711
0.0059534
-0.00766111
-0.00770038
-0.00709672
-0.00729746
-0.00768178
-0.00734126
-0.00705305
-0.00656952
-0.00503683
-0.00508426
-0.006611
-0.00633608
-0.00587178
-0.00657543
-0.005459
0.0158025
0.0174099
0.017653
0.0169897
0.0174115
0.0136822
0.0150702
0.0166366
0.015643
0.0166081
0.0139261
0.0126051
0.0131995
-0.00997133
-0.0104401
-0.0103134
-0.0105115
-0.0102893
-0.0104199
-0.00973884
-0.0104206
-0.0102771
-0.0105116
-0.0104952
-0.0103233
-0.0102448
-0.0103847
-0.00926423
-0.00794364
-0.0104244
-0.00780359
-0.00817438
-0.00974414
0.0119641
0.012766
0.0114348
0.0121629
0.0103683
0.0111913
0.0135242
0.0132581
0.0123252
0.00956261
0.00954637
-0.00795865
-0.00780302
-0.00820071
-0.00815566
-0.00811428
-0.00804339
-0.00787611
-0.00771723
-0.00730348
-0.00816739
-0.0079239
-0.00769463
-0.00805305
-0.00763592
0.00574529
0.0047898
0.00519873
0.00346265
0.00403396
0.00481039
0.00473723
0.00598672
0.00556241
0.00459473
0.00397859
0.00329949
0.00559688
0.00400999
-0.00726076
-0.0073416
-0.00697732
-0.00694374
-0.00727044
-0.00719792
-0.00733913
-0.00728495
-0.00749303
-0.00692927
-0.0071798
-0.00666955
-0.00733462
-0.00741635
-0.00714955
-0.00710718
-0.00728144
-0.010253
-0.00995536
-0.0100094
-0.00986982
-0.0111591
-0.00965517
-0.00956118
-0.00893949
-0.00984875
-0.0102661
-0.00941202
-0.00998655
-0.0121231
-0.0121643
-0.0120563
-0.0121121
-0.0120161
-0.0124008
-0.0126913
-0.0123373
-0.0122984
-0.012684
-0.0121281
-0.0119895
-0.0122217
-0.00567633
-0.00543003
-0.00573217
-0.00513992
-0.0051752
-0.00504261
-0.00484978
-0.00477942
-0.00476587
-0.00527195
-0.00559144
-0.00547161
-0.0046795
-0.00514169
-0.00504305
-0.000404989
-0.000302165
-0.000213338
-0.000419324
-0.000175962
-0.000215883
-0.000578973
-0.000664222
-0.000106811
-5.82245e-05
0.000386396
5.9339e-05
-5.9168e-05
0.000320712
0.000984715
0.000384506
3.59201e-05
0.000552576
0.00017566
0.000182173
-4.20913e-05
-3.75709e-05
-0.00555818
-0.00651986
-0.00381559
-0.00452304
-0.0048948
-0.00554812
-0.00538205
-0.00556293
-0.00551462
-0.00427729
-0.00515008
-0.00820778
-0.00834934
-0.00852923
-0.00853025
-0.00844883
-0.00815253
-0.00822238
-0.00862815
-0.00881556
-0.00860696
-0.00884737
-0.00800397
-0.00830779
-0.00840857
-0.0085968
-0.00834071
-0.00846779
-0.0155697
-0.0143592
-0.0139948
-0.0155241
-0.0184834
-0.0183633
-0.0178777
-0.01701
-0.0170677
-0.0163171
-0.01787
-0.003752
-0.0043004
-0.00498276
-0.00485227
-0.00445418
-0.0046443
-0.00406581
-0.00482033
-0.00494561
-0.00437346
-0.00436565
-0.000199964
-0.000103417
-0.000306446
-0.000376795
-0.000119077
-0.000104844
-0.000403242
-0.000137044
-0.000445683
-0.000559524
-0.000538688
-0.000227237
-0.000432916
-0.000891791
-0.000779126
-0.00595862
-0.00473279
-0.00717418
-0.00589372
-0.00596041
-0.00742491
-0.00779054
-0.00742468
-0.00776121
-0.00776442
-0.00740913
-0.00820948
0.0493448
0.0541387
0.0427787
0.0453968
0.0482031
0.0502853
0.0499256
0.0527655
0.0454166
0.0498181
0.0480384
0.0490623
0.045208
0.0496599
0.0438882
0.0454163
0.0473189
0.0423531
0.0341573
0.0337161
0.034509
0.0352437
0.0361543
0.0371364
0.0343778
0.0349895
0.0374884
0.0409905
0.0377249
0.0378994
0.0395713
0.025473
0.0226992
0.0201148
0.0217547
0.0263974
0.0230834
0.021637
0.0230385
0.0226485
0.0207572
0.0280774
0.0280338
0.0210864
0.0226448
0.0201211
0.0263754
0.0284712
0.0285027
0.0244802
0.0244712
0.0251328
0.0264751
-0.00928532
-0.00967246
-0.00992014
-0.00991327
-0.0100324
-0.00945984
-0.00952411
-0.00967371
-0.00973876
-0.00940211
-0.00984
-0.0094285
-0.00960048
-0.00950256
-0.0096861
-0.00964957
-0.0226943
-0.0254194
-0.0136539
-0.0211507
-0.0120056
-0.0186302
-0.0155639
-0.0129541
-0.0123214
-0.0168033
-0.0297682
-0.0248948
-0.0167779
-0.022685
-0.0118514
-0.0145709
0.00150468
0.00135001
0.00152073
0.00235824
0.00272645
0.00332877
0.00115943
0.00083289
0.00248243
0.00245541
0.00333759
0.00299126
0.00271811
0.00264053
0.00248232
0.00183209
0.00109875
0.00190435
0.0332896
0.0372868
0.0358348
0.0324718
0.0337862
0.0365305
0.0400862
0.0391997
0.0340166
0.0400296
0.0417028
0.0399729
0.0360767
0.0328657
0.0336681
0.0347358
0.0264
0.0257446
0.0262474
0.026021
0.0251695
0.0269627
0.0275392
0.0269196
0.0262871
0.0272223
0.0266628
0.0258442
0.0267007
0.0251182
0.0258042
0.0273369
0.0278159
0.0117268
0.0115804
0.0112951
0.0116644
0.0116468
0.0117012
0.0117827
0.0118674
0.0119017
0.0117509
0.0113892
0.0114491
0.0119601
0.0116072
0.0117188
0.0110042
0.011009
-0.00454764
-0.00543121
-0.00687244
-0.0059579
-0.00508116
-0.00509771
-0.00484188
-0.00482812
-0.00549293
-0.00505392
-0.00658035
-0.00669029
-0.00567503
-0.00391687
-0.00622562
-0.00543179
-0.00532595
-0.00605846
-0.00398444
-0.00402053
-0.0039191
-0.003841
-0.00328451
-0.00365537
-0.00379868
-0.00382038
-0.00335215
-0.00351693
-0.00362193
-0.003288
-0.00324243
-0.00356786
-0.00588294
-0.00558213
-0.00636665
-0.00724487
-0.00725113
-0.00660034
-0.00627376
-0.00625178
-0.00613524
-0.00700203
-0.00712907
-0.00687917
-0.00660725
-0.00608397
-0.00639516
-0.00705935
-0.00730547
-0.00740843
0.0207895
0.0165247
0.01736
0.0241
0.0204001
0.0145154
0.0174779
0.0175881
0.0140536
0.022455
0.0176306
0.0147034
-0.00880967
-0.00858832
-0.00850486
-0.00834025
-0.00865233
-0.0084575
-0.00737834
-0.00776372
-0.00866357
-0.00869964
-0.00860243
-0.00782839
-0.00788875
-0.00836254
-0.00855918
-0.00836439
-0.00502132
-0.00549228
-0.00463243
-0.00495692
-0.00594731
-0.00581061
-0.00585041
-0.00472299
-0.00458265
-0.00459187
-0.00459795
-0.00545782
-0.00578233
-0.00483935
-0.00445739
-0.00530422
0.00403765
0.0032754
0.00260732
0.00579307
0.00668054
0.00428953
0.00499058
0.00175428
0.00332889
0.00400014
0.00558937
0.00452281
0.00558264
0.00638297
0.00611325
0.00306201
0.00315498
0.00444537
0.00253508
-0.00247157
-0.00152511
-0.00249835
-0.00378555
-0.00292122
-0.00198801
-0.00358741
-0.00317214
-0.00252743
-0.00287115
-0.00237771
-0.00371555
-0.00263476
-0.00221958
-0.00183643
-0.00150334
-0.00143161
-0.00220772
-0.00177555
-0.001908
-0.00168609
-0.00163684
-0.00217065
-0.00147032
-0.00194872
-0.00170146
-0.00236012
-0.00133826
-0.00138386
-0.00145376
-0.00134544
-0.00177369
-0.00453065
-0.00514483
-0.00424443
-0.00289043
-0.00334808
-0.00698866
-0.00446927
-0.0041888
-0.004176
-0.00530331
-0.00673186
-0.00707785
-0.00739289
-0.00747452
-0.00716982
-0.00824363
-0.00867505
-0.0083299
-0.00931232
-0.00664037
-0.00656021
-0.00855137
-0.00950815
-0.00931061
-0.00845171
-0.00832077
-0.00936637
-0.0085419
-0.00807778
-0.00864993
-0.00862946
-0.00767878
-0.0102516
-0.0102769
-0.0100307
-0.0101948
-0.00997765
-0.0101001
-0.0101892
-0.00995481
-0.00979446
-0.00991783
-0.0100809
-0.00988679
-0.00996606
-0.00993402
-0.00999449
-0.0098995
-0.00997119
-0.00659381
-0.00696393
-0.00819277
-0.00785953
-0.00717729
-0.00770102
-0.00787003
-0.00768125
-0.00740656
-0.00782066
-0.00708852
-0.00419135
-0.00461997
-0.00323567
-0.00286941
-0.00337921
-0.00259141
-0.00302256
-0.00211653
-0.00333314
-0.00311295
-0.00306605
-0.00293281
-0.00277675
-0.00278638
-0.00260478
-0.00258765
-0.00288553
-0.0028116
-0.00226742
-0.00273813
-0.00252472
-0.002895
-0.00286305
-0.00245923
-0.00247928
-0.00260755
-0.00229823
-0.00258308
-0.00242826
-0.0022324
-0.00246813
-0.00218437
-0.00240947
-0.00253204
-0.00226147
-0.00570221
-0.00595078
-0.00582229
-0.00578025
-0.00537885
-0.00474964
-0.00570681
-0.00457799
-0.00530574
-0.00404761
-0.0048661
-0.00528145
-0.00546187
-0.00505243
-0.00479841
-0.00616622
-0.00512908
-0.00464993
-0.00446819
-0.00438996
-0.00715531
-0.00731068
-0.00746695
-0.00743809
-0.00674998
-0.00684189
-0.00741758
-0.00739367
-0.00726599
-0.00629909
-0.00658913
-0.00657346
-0.00630458
-0.00679324
-0.00673919
-0.00699704
-0.00618888
-0.00637159
-0.00687572
-0.00696856
-0.00629506
-0.00643811
-0.00590425
-0.00693017
-0.00625848
-0.00683887
-0.00650171
-0.00755146
-0.00595924
-0.00583085
-0.00581591
-0.00645848
-0.00678609
-0.00628974
-0.00702638
-0.00628985
-0.00611033
-0.00646099
-0.00619098
-0.00690936
-0.00647492
-0.00779406
-0.00727498
-0.00807487
-0.0088725
-0.00844423
-0.00824168
-0.0077627
-0.00770272
-0.00859997
-0.00867264
-0.00906528
-0.00796663
0.021876
0.022383
0.0233458
0.0223675
0.0231749
0.0218737
0.0229186
0.021761
0.0223503
0.0233492
-0.00934189
-0.00912186
-0.00878851
-0.0088307
-0.00936871
-0.00938938
-0.00890713
-0.00910953
-0.0093127
-0.00876988
-0.00915674
-0.00902981
-0.00901639
-0.00933411
-0.00908016
-0.00933164
-0.00936971
-0.00976497
-0.00921676
-0.0100961
-0.00986412
-0.00950477
-0.0101829
-0.00907381
-0.00987954
-0.00898923
-0.00880818
-0.00983595
-0.01005
-0.00892732
-0.00990968
-0.0100727
-0.00947651
-0.0091478
-0.0101324
-0.00945779
-0.00944707
0.0111715
0.0115725
0.0122718
0.0116918
0.0113687
0.0124969
0.00907783
0.0106549
0.0108795
0.0105411
0.009835
0.0119333
0.0114067
0.0119433
0.0110602
0.010625
-0.0151435
-0.016151
-0.0150656
-0.014553
-0.0145822
-0.0122969
-0.0130636
-0.0137672
-0.0146387
-0.0149921
-0.0111934
-0.0127876
-0.0140203
-0.0108753
-0.0119054
-0.0100922
-0.00983606
-0.00987012
-0.0108148
-0.0109265
-0.011652
-0.0100512
-0.00958435
-0.0093278
-0.0105089
0.0118706
0.0108558
0.0104846
0.0105568
0.0106245
0.00910789
0.00877108
0.00817911
0.00822786
0.00879816
0.0089361
0.00800849
0.00982731
0.00890227
0.0106314
0.0107356
0.0087423
0.00988092
0.00949097
-0.00932152
-0.00932625
-0.00978291
-0.00921112
-0.0106584
-0.00952096
-0.00910534
-0.00960937
-0.00973252
-0.00924146
-0.00915136
-0.00979444
-0.0100554
-0.0105013
-0.0100432
-0.00932031
-0.00922389
-0.0100911
-0.00992529
-0.00616225
-0.00731133
-0.00659138
-0.0064539
-0.00635935
-0.00663789
-0.00639151
-0.00586028
-0.0069784
-0.00676843
-0.0067475
-0.00631327
-0.00679167
-0.00665409
-0.00698412
-0.00705592
0.0213116
0.0218911
0.0212358
0.0210193
0.0223223
0.0231911
0.0228875
0.0220026
0.0220559
0.0228859
0.0230548
0.0221389
0.0229445
0.0235085
0.0241615
0.0236134
-0.0125531
-0.0145037
-0.0108352
-0.0108432
-0.0155156
-0.0182917
-0.00772519
-0.00884049
-0.0113558
-0.0138966
-0.0108076
-0.0115276
-0.0131271
-0.018092
-0.0163696
-0.00928844
-0.0141238
-0.0111785
-0.0145689
-0.0169774
0.0576774
0.0517295
0.0473819
0.0470457
0.0561543
0.0574565
0.0509655
0.0557723
0.0499526
0.0519457
0.049527
0.0499615
0.0467859
0.0466516
0.0523681
0.0200227
0.0187029
0.0233419
0.0249922
0.0228372
0.019784
0.0251592
0.0217173
0.0241604
0.0274218
0.0263473
0.0275865
0.029325
0.0271225
-0.0147849
-0.0155263
-0.0150758
-0.0158315
-0.0139291
-0.0142002
-0.0125876
-0.0114516
-0.0137903
-0.0137309
-0.0119268
-0.01146
-0.014211
-0.0125019
-0.0121842
-0.0127998
-0.00523204
-0.00494105
-0.00498485
-0.00516024
-0.00495736
-0.00526168
-0.00486322
-0.00521704
-0.00540729
-0.00475089
-0.00482203
-0.00476016
-0.00533
-0.00517336
-0.00484184
-0.00504336
-0.00498447
-0.00530797
-0.00511417
-0.010375
-0.0103702
-0.00992433
-0.0107334
-0.0108824
-0.0106584
-0.0100759
-0.0107982
-0.0107176
-0.00929552
-0.00985716
-0.00965338
-0.0101798
-0.00984665
-0.0109685
-0.010622
-0.00937852
-0.00979819
-0.00949448
-0.00960954
-0.00929312
-0.00935349
-0.00978089
-0.00921952
-0.00939338
0.0300961
0.0292749
0.0293416
0.029778
0.0299481
0.0295664
0.0293518
0.0293816
0.0300912
0.0298925
0.0299485
0.029702
0.0297704
0.0295521
0.0298654
0.0299294
0.0299615
0.0297579
0.029409
0.0300246
-0.00709045
-0.00789646
-0.00703002
-0.007536
-0.00702329
-0.00670533
-0.00685822
-0.00762941
-0.00664107
-0.00694517
-0.00714166
-0.00732677
-0.00423996
-0.00432821
-0.00394483
-0.00380545
-0.00363005
-0.00430954
-0.00432252
-0.00444821
-0.00421808
-0.0037921
-0.00378687
-0.00409644
-0.00412424
-0.00378888
-0.00392284
-0.00386491
-0.00403995
-0.00388803
-0.00315988
-0.00298526
-0.00326896
-0.00298382
-0.00312723
-0.003517
-0.00358358
-0.00371116
-0.003754
-0.00304761
-0.00347711
-0.00317115
-0.00381088
-0.00368834
-0.00330983
-0.00314283
-0.00381272
-0.00352212
-0.00308588
-0.00236434
-0.00250345
-0.00264173
-0.00193365
-0.00235189
-0.00208587
-0.00198749
-0.00280083
-0.00240261
-0.00289632
-0.00283827
-0.00207557
-0.00208471
-0.0022358
-0.00294826
-0.00288214
-0.00664483
-0.00644884
-0.00661194
-0.00645456
-0.00648063
-0.00616183
-0.00605934
-0.00708844
-0.00708865
-0.00967672
-0.00943181
-0.00947612
-0.00964054
-0.00968078
-0.00971662
-0.009556
-0.00984961
-0.00956244
-0.0094318
-0.00968804
-0.00950761
-0.00411397
-0.00397328
-0.00411825
-0.00413187
-0.0040453
-0.00424969
-0.00418925
-0.00438684
-0.00434922
-0.00415807
-0.0046063
-0.00457083
-0.00451154
-0.00461474
-0.00443639
-0.00460661
0.0305772
0.0307952
0.030507
0.0302509
0.0299097
0.0299984
0.0295094
0.0294508
0.0297175
0.030247
-0.00823101
-0.00800978
-0.00825822
-0.00802523
-0.0083114
-0.00820409
-0.00848574
-0.00845489
-0.00855891
-0.00859705
-0.00830078
-0.00815534
-0.00835075
-0.00872897
-0.00863613
-0.00840575
-0.00834855
-0.00834371
-0.00507466
-0.00537278
-0.00498664
-0.00506324
-0.00501732
-0.00498745
-0.00522846
-0.00502116
-0.00515708
-0.00557869
-0.00532551
-0.00540656
-0.00517202
-0.00535206
-0.00493536
-0.0050357
-0.00524198
-0.00503888
0.00823238
0.00761011
0.00700765
0.0079985
0.00615804
0.00558379
0.00864293
0.00810505
0.00677536
0.00831576
0.00732371
0.00640082
0.00717801
0.00721596
0.0303424
0.0302394
0.0301222
0.0299471
0.0303948
0.0299917
0.0298112
0.0298451
0.0301507
0.0299687
0.0301359
0.0302605
0.0298383
0.0298034
0.0296919
0.0297344
0.030112
0.0299072
0.0300515
0.0298211
0.0427004
0.0413366
0.0345084
0.0376145
0.0271371
0.0314841
0.0169913
0.0327333
0.0327006
0.0300673
0.0357856
0.0259674
0.037626
0.0427739
0.0385892
0.0460754
0.0276896
0.0389379
0.0344517
-0.00909162
-0.00944167
-0.00604641
-0.00453461
-0.0107728
-0.0126996
-0.01196
-0.0141195
-0.00564712
-0.00574406
-0.0159465
-0.0125022
-0.00753048
-0.0122846
-0.0132376
-0.00852763
-0.00883757
-0.013111
-0.0105606
-0.0101433
-0.00114154
-0.00170638
-0.00166897
-0.00168738
-0.00206154
-0.00126571
-0.00249933
-0.00184138
-0.00182803
-0.0018322
-0.00184325
-0.00170333
-0.00247741
-0.00155426
-0.00252359
-0.00245871
-0.00221755
-0.00224093
-0.0014928
-0.015978
-0.0158579
-0.0168138
-0.0165197
-0.0169731
-0.0175001
-0.0151565
-0.0157865
-0.016544
-0.0135842
-0.0156594
-0.0152092
-0.0153529
-0.0161897
-0.0159889
-0.0161946
0.0319578
0.0319085
0.0317754
0.0318518
0.0321249
0.0321423
0.0320191
0.0320481
0.0318582
0.0317221
0.0322426
0.0320187
0.0321828
0.0321774
0.0318011
0.031724
0.0318922
0.0320633
0.0321943
0.0317889
-0.000506369
-0.000654065
-9.21902e-05
0.000325381
-0.00259792
-0.00267935
-0.00310786
-0.00396093
-0.00187681
-0.000490301
-0.00011675
-0.0025969
-0.00294064
-0.0034641
-0.00419249
-0.0040775
-0.00177004
-0.00357867
-0.00333327
-0.00227724
0.032167
0.0320641
0.0321476
0.0321906
0.0321799
0.0321929
0.0321149
0.0322488
0.0323111
0.0323153
0.0323811
0.0320944
0.0322644
0.0322262
0.0323399
0.0323216
0.0322102
-0.00561875
-0.00554006
-0.00564957
-0.00588064
-0.00583079
-0.00553658
-0.00535226
-0.00570823
-0.00577122
-0.00604103
-0.00537953
-0.00497856
0.0302959
0.0301097
0.0306564
0.0306576
0.030417
0.0303594
0.0300274
0.0302416
0.0304562
0.0306232
0.0306622
0.0302919
0.0301379
0.0302548
0.0300496
0.030254
0.030052
0.0303138
0.0303803
0.0300402
0.0302819
0.0239298
0.0234913
0.0235894
0.0240053
0.0240364
0.0231983
0.0235821
0.0252272
0.0253939
0.0251778
0.024492
0.0241278
0.0237681
0.0237105
0.0237289
0.0244258
0.0243059
0.0243201
0.00890308
0.00916347
0.00924689
0.00882547
0.00909004
0.00979805
0.00944038
0.00947858
0.00922365
0.0103867
0.0102153
0.0104631
0.010293
0.00936004
0.0090872
0.050175
0.0451019
0.0392706
0.0406909
0.0470299
0.0451296
0.0565973
0.0419568
0.0488129
0.0437096
0.0561572
0.0559653
0.0516837
0.0449394
-0.00187448
-0.00151751
-0.00216623
-0.00277597
-0.00257559
-0.00292769
-0.00191001
-0.00204098
-0.00233279
-0.00200454
-0.00282977
-0.00234504
-0.00200869
-0.00152037
-0.0017249
-0.0022718
0.0257849
0.0237297
0.0253696
0.0235691
0.0232331
0.0236226
0.0239442
0.0239979
0.0248537
0.0252564
0.027714
0.0272041
0.026222
0.0285397
0.0291257
0.0265425
0.0275739
0.0314706
0.0314342
0.0310345
0.0311315
0.0312372
0.0312852
0.0315062
0.0315416
0.0310031
0.0311182
0.0314525
0.0314827
0.0314371
0.0313192
0.0312741
0.0314405
0.0312489
-0.0106309
-0.00851787
-0.00859632
-0.0115052
-0.00761017
-0.0126929
-0.017769
-0.00774122
-0.0102325
-0.0112748
-0.0103443
-0.00953891
-0.0102011
-0.00807907
-0.0173457
-0.0174093
-0.0146157
-0.0155278
0.0186743
0.0183293
0.0199328
0.0196019
0.0189094
0.017597
0.018009
0.0195562
0.0200286
0.0196338
0.0193925
0.0196926
0.0180268
0.0177757
0.0171319
0.0189191
0.0178063
0.0184296
0.0173846
0.018892
0.0181921
0.0179562
-0.00411021
-0.00455196
-0.00427636
-0.00393563
-0.00361917
-0.00374459
-0.00256354
-0.00295463
-0.00361346
-0.00438061
-0.00378146
-0.00391125
-0.0030383
-0.00295162
-0.00300063
-0.00294188
-0.00449845
-0.00502168
-0.00433999
-0.00442516
-0.00484143
-0.00468966
-0.00443566
-0.00472535
-0.00503355
-0.00484775
-0.00490383
-0.00418572
-0.00423552
-0.00412707
-0.00430253
-0.00427571
-0.00499499
-0.00496982
-0.00487892
-0.0046049
-0.00425475
-0.00467882
-0.00482233
-0.00468755
-0.00474762
-0.0049009
-0.00512275
-0.00516646
-0.00467593
-0.00503748
-0.00466745
-0.00482179
-0.00456841
-0.00503343
-0.00425174
-0.00456221
-0.00436046
-0.00508549
-0.00471402
-0.00436969
-0.00508293
-0.00862346
-0.00911257
-0.00891591
-0.0105325
-0.00752829
-0.00649026
-0.00961201
-0.00936715
-0.0047796
-0.00539347
-0.00321073
-0.00630064
-0.00411132
-0.00660943
-0.00614587
-0.00786081
-0.00765056
-0.00613354
-0.00573045
-0.00244629
-0.00452008
-0.00305742
0.00696074
0.00530637
0.00463198
0.00513406
0.00574995
0.00734847
0.00723408
0.00614574
0.00542244
0.00456766
0.00498223
0.00514463
0.00476387
0.00581911
0.00568385
0.00675241
0.005536
0.00479452
0.00545882
-0.00770467
-0.00726328
-0.00745064
-0.00751389
-0.0076499
-0.00768234
-0.00787086
-0.00817759
-0.00766697
-0.0082616
-0.0077637
-0.00756961
-0.00761987
-0.00754616
-0.00761042
-0.00756084
-0.00761268
-0.00465912
-0.00484973
-0.00631835
-0.00580473
-0.00557371
-0.00584596
-0.00607018
-0.00575875
-0.00517031
-0.0059786
-0.00537491
-0.00600748
-0.00567162
-0.00573969
-0.00381404
-0.0044353
-0.00464067
-0.00497807
-0.00432013
-0.00463879
-0.00371365
-0.00479978
-0.00484249
-0.00511253
-0.0051741
-0.00368021
-0.00452607
-0.00481138
-0.00474729
-0.00393148
-0.00476392
-0.000224145
-0.00050022
-0.000221239
-4.22243e-05
-0.000155052
-0.00025762
-0.000335835
-0.000380859
-4.54959e-05
-0.000229884
-0.000479052
-0.000436148
-0.000630734
-0.000614841
-0.0001677
-0.000325371
-0.000717925
-0.000625972
-0.000638993
-0.000587752
-0.000276638
-7.95375e-05
-0.000707098
-1.67813e-05
-0.000264474
-0.000256421
-0.000432285
-0.000619367
-0.000321345
-0.000331346
-0.00022845
-2.92334e-05
-5.7908e-05
-0.000286167
-0.000541954
-0.000241156
-0.000257534
-0.000589748
-8.03553e-05
-0.000280729
-0.0101565
-0.0116216
-0.0148988
-0.0157645
-0.0155868
-0.0163963
-0.0109042
-0.0124571
-0.0133452
-0.0087923
-0.0110632
-0.0120024
-0.0143372
-0.0136049
-0.0128958
-0.0117706
-0.0112972
9.70801e-05
0.00010082
-0.000291278
0.000993076
0.000351632
-0.000522295
-0.00078615
0.00105349
0.00076886
-0.000183646
-0.0101793
-0.0102873
-0.0106164
-0.0108577
-0.0101805
-0.0101931
-0.0102564
-0.0107959
-0.0107615
-0.0104379
-0.0105139
-0.0102655
-0.010319
-0.00985533
-0.00981978
-0.0101393
-0.0101245
-0.0101825
-0.00839716
-0.00834226
-0.00848537
-0.00808191
-0.00853719
-0.00821548
-0.00827565
-0.00818974
-0.00793867
-0.00802529
-0.00863449
-0.00871508
-0.00842915
-0.000618292
-0.000365397
-0.000763746
-0.000466809
-0.000895396
-0.00117156
-0.000856209
-0.000251629
-0.000126942
-0.000620915
-0.000998496
-0.000864645
-0.00018618
-0.000161271
-0.00975711
-0.00966962
-0.010024
-0.00980845
-0.00963295
-0.00959282
-0.00988931
-0.00984197
-0.00982445
-0.00972605
-0.00973535
-0.00996347
-0.00968718
-0.00947916
-0.0101337
-0.0189232
-0.0181987
-0.017684
-0.0177373
-0.0169781
-0.0161959
-0.0194243
-0.0188882
-0.0190646
-0.0195363
-0.0199199
-0.0199007
-0.0177241
-0.0174841
-0.0179151
-0.0182372
-0.0183708
-0.0193812
0.0310044
0.0310004
0.0312585
0.0306012
0.0307164
0.030678
0.0307867
0.0306062
0.0309292
0.030906
-0.00804154
-0.00809432
-0.00807831
-0.00830532
-0.00802066
-0.00830445
-0.00798933
-0.00808268
-0.00788523
-0.00796259
-0.00798938
-0.00821352
-0.00828163
-0.00810139
-0.00832175
-0.00797238
-0.00809323
-0.00811089
-0.00790044
-0.00806682
-0.00811992
-0.00809316
-0.00435968
-0.00413446
-0.00421612
-0.00408743
-0.00391648
-0.00383094
-0.00379717
-0.00386454
-0.0038196
-0.00375503
-0.00353143
-0.00356176
-0.0036892
-0.00380528
-0.00364417
-0.00357691
-0.0034987
-0.00371097
0.032678
0.0336447
0.0349173
0.0336123
0.0321752
0.0346627
0.0328466
0.0337922
0.0300997
0.0319548
0.0335303
0.0307109
0.0310441
0.0298019
0.02852
0.0316258
0.029427
0.0282955
0.0293713
0.0328539
0.0306965
0.029748
0.0271638
0.03244
0.0332527
0.0345888
0.0340546
0.038487
0.037647
0.0349063
0.0375218
0.030755
0.0300219
0.0383346
0.0393555
0.0359523
0.0386605
0.0320516
0.0321657
0.0322248
0.0320374
0.0321401
0.0320356
0.032209
0.0321653
0.0320154
0.0321388
0.0319634
0.0320017
0.0322162
0.0321578
0.032159
0.0322122
0.0316061
0.0274622
0.0270412
0.0294132
0.0305165
0.0323527
0.0302585
0.0303337
0.0266658
0.0259847
0.0307289
0.0285215
0.0301108
0.0273842
0.029504
0.0272154
0.0269573
0.0283022
0.0288896
0.0277101
0.028397
0.029548
0.0293963
0.0286462
0.0279158
0.0295592
0.0299779
0.0294838
0.0241064
0.0236457
0.0258925
0.0272531
0.0153703
0.014351
0.0244563
0.024289
0.0150914
0.0173036
0.0198821
0.019772
0.0214972
0.0189849
0.0165123
0.0144178
0.0298671
0.0290232
0.0293832
0.0298969
0.0290985
0.0304219
0.0300188
0.0292209
0.0292408
0.0320912
0.0316586
0.031342
0.0307901
0.0296661
0.0307995
0.030236
0.0313004
0.0306859
0.0300274
0.0315801
0.00953593
0.0113615
0.00603489
0.00303335
0.00424178
0.00713501
0.0145217
0.00614763
0.0100533
0.0100067
0.00366339
0.00873626
0.00945089
0.00632327
0.00934702
0.0160337
0.0160956
0.0145489
0.0125405
0.0108844
0.0199206
0.0170325
0.0170679
0.0142439
0.0182073
0.0183376
0.0183297
0.0156517
0.0142093
0.0152882
0.0154187
0.0161863
0.0165313
0.0313928
0.0314351
0.0312555
0.0311497
0.0318023
0.0317721
0.0313611
0.0312034
0.0319495
0.0319617
0.0314134
0.0316941
0.031944
0.0319121
0.0318118
-0.00934416
-0.00908519
-0.00950909
-0.00950352
-0.00994764
-0.00876649
-0.00857668
-0.0104692
-0.0101379
0.0336159
0.0327421
0.0317298
0.0316704
0.0324163
0.0317832
0.0340222
0.031483
0.0352438
0.0337962
0.0315843
0.033442
0.0340848
0.0344551
0.0349149
0.0306935
0.0310003
0.0327831
0.0349594
0.0336288
0.0311904
0.0320685
0.00579274
0.0065038
0.00579798
0.00391807
0.00493109
0.0058204
0.00263119
0.00388845
0.00420172
0.00205019
0.00326875
0.0013322
0.00210306
0.000976691
0.000521483
0.00140237
0.00264272
0.00421034
0.000210276
0.00309426
0.0301969
0.0284933
0.0332546
0.0286817
0.0305888
0.036975
0.0342198
0.0304136
0.034147
0.0297851
0.032254
0.0381459
0.0359763
0.0366887
0.0400963
0.033415
0.0326421
0.0309209
0.0353987
0.0293848
0.0325748
0.0302681
0.0342157
0.0386161
0.0395153
0.0376503
-0.00925938
-0.0101666
-0.00999029
-0.00932955
-0.00954555
-0.0102708
-0.00964883
-0.00932379
-0.0107932
-0.00937674
-0.00967261
-0.01013
-0.00961792
-0.00909209
-0.00903513
-0.00956251
-0.00944981
-0.0101075
-0.00942469
-0.00895011
-0.00893424
-0.00904231
-0.0090857
-0.0096772
-0.00917544
-0.00961182
-0.00586063
-0.00558093
-0.00631222
-0.00681026
-0.00575717
-0.00599664
-0.00570474
-0.00461351
-0.00652783
-0.0038967
-0.00644951
-0.00524828
-0.00477519
-0.00546146
-0.00640707
-0.00638953
-0.0058506
-0.0055322
0.0118599
0.0113461
0.00785994
0.00991228
0.00852759
0.00654489
0.00323695
0.00801699
0.00829336
0.00582755
0.000872545
0.00468202
0.00610241
0.0274984
0.0282865
0.0286304
0.0272532
0.0289181
0.0286963
0.0290803
0.0282071
0.0283431
0.02732
0.0275151
0.0294075
0.0287663
-0.0109567
-0.0107692
-0.0116075
-0.0110133
-0.0110431
-0.0115665
-0.0126701
-0.0122275
-0.0135862
-0.011737
-0.0118616
-0.0115414
-0.0128127
-0.0109814
-0.00971373
-0.00954868
-0.00992504
-0.010236
-0.0106554
-0.0107574
-0.010992
-0.00980448
-0.0100184
-0.0102443
-0.00995015
-0.00972602
-0.00998866
-0.0098905
-0.00960862
-0.0093332
-0.00962242
-0.00966696
-0.00983857
-0.00938489
-0.00919529
-0.00923162
-0.00916657
-0.00950196
-0.00966043
-0.0097919
-0.00981195
-0.00941683
-0.0093716
-0.00949369
-0.00828652
-0.00793979
-0.00793369
-0.00779185
-0.0078773
-0.00777135
-0.00776898
-0.00813356
-0.00785126
-0.00774942
-0.00797215
-0.00796355
-0.0079203
-0.00847415
-0.00452469
-0.00561915
-0.00576334
-0.0045369
-0.00514336
-0.00570119
-0.00628838
-0.00450448
-0.00447878
-0.00508113
-0.00516184
0.0249716
0.026593
0.0256723
0.0268007
0.0260466
0.0269661
0.0260645
0.025296
0.0263998
0.0255101
0.0269278
0.0246719
0.0262264
0.0349339
0.0378086
0.0400947
0.0484529
0.0462183
0.0347006
0.0518182
0.0510218
0.0380986
0.0438264
0.036322
0.038562
0.0467104
0.0506448
0.0534644
0.0418688
0.0437257
0.0403109
0.0501073
0.0480699
0.046274
0.0432638
0.0358272
0.0358203
0.035809
0.0345095
0.0342128
0.0329409
0.0333422
0.0338993
0.0331272
0.0321532
0.032239
0.0218821
0.0212155
0.0208911
0.02049
0.0230245
0.0225118
0.0207506
0.0222041
0.0213774
0.020438
0.0196369
0.0199261
0.0216977
0.0231146
0.0232968
0.0204501
0.0198929
0.0222567
0.019318
0.0335295
0.0338205
0.0336966
0.0336894
0.0344349
0.0342685
0.03405
0.0338706
0.0338686
0.034272
0.0350346
0.0347301
0.0351673
-0.00676024
-0.00267101
-0.000304617
-0.00420368
-0.00211196
0.00142378
0.00121933
0.00204537
0.0027434
-0.00187773
0.000469124
-0.00686479
-0.0101162
-0.00182819
0.00154534
-0.0048705
-0.00265562
-0.0106359
-0.00587116
-0.0114342
-0.00446807
-0.00880671
-0.00878219
-0.00872143
-0.00887861
-0.00858955
-0.00868209
-0.00891799
-0.00920407
-0.00872395
-0.00853987
-0.00908053
-0.00891151
-0.00865823
-0.00863824
-0.0086446
-0.00880654
-0.00855076
-0.00862179
-0.010975
-0.0124493
-0.00987972
-0.00979841
-0.00970354
-0.0115192
-0.0105134
-0.0102979
-0.00991404
-0.0104093
-0.0120522
-0.013987
-0.0120147
-0.0118748
-0.00984416
-0.00794128
-0.0094498
-0.00892775
-0.00837466
-0.00997926
-0.0120165
-0.00927758
-0.00773962
-0.0086317
-0.00797993
-0.00986169
-0.00870704
-0.00310629
-0.00346319
-0.00370023
-0.00362581
-0.00392754
-0.0125232
-0.0147379
-0.0131705
-0.0146512
-0.0190824
-0.0125738
-0.016444
-0.0198269
-0.0193567
-0.0236757
-0.0250844
-0.0214541
-0.0208236
-0.0216714
-0.0167511
-0.00143642
-0.00197981
-0.0016427
-0.00270648
-0.00261231
-0.00242211
-0.00272861
-0.00206996
-0.00261072
-0.00186447
-0.00132062
-0.00250481
-0.0023305
-0.00190866
-0.000882736
-0.00166163
-0.00266597
-0.00200267
0.0183003
0.0163711
0.0125468
0.0194395
0.00702246
-0.00328985
0.018597
0.00903006
0.0175565
0.0116127
0.0131148
-0.0162505
-0.0078318
-0.0262007
0.00732974
0.00688496
0.00366055
-0.00545902
0.00103755
0.00568938
-0.0179212
-0.0174939
-0.0175783
-0.0160679
-0.0164506
-0.0153164
-0.0151902
-0.0149941
-0.0163857
-0.0166061
-0.0146042
-0.0152687
-0.0157734
-0.0148672
-0.0116256
-0.00985269
-0.0107216
-0.0125582
-0.00795843
-0.00870155
-0.0102216
-0.0125627
-0.00997252
-0.00962514
-0.0124895
-0.0112428
-0.00718892
-0.00792763
-0.00711533
-0.00773834
-0.00779939
-0.0081243
-0.0057509
-0.00682882
-0.00590948
-0.0086448
-0.0121493
-0.0073914
-0.0135664
-0.0118616
-0.0136792
-0.013127
-0.00285584
-0.00354198
-0.00318356
-0.00529287
-0.00775303
-0.00841513
-0.0101555
-0.0103657
-0.00455151
-0.00768439
-0.00497163
-0.00517599
-0.000982142
-0.00262472
-0.00295669
-0.00275305
0.000881485
0.000584825
-0.000387205
0.00265228
0.00269788
-0.000921218
-0.00324536
-0.000439319
0.00068568
0.00236316
0.0029465
-0.001655
0.000743636
0.000461763
-0.00103571
0.000112239
0.0131873
0.0138102
0.0108936
0.0113254
0.0138608
0.012032
0.0115465
0.0121401
0.0126504
0.0121398
0.0110849