/*--------------------------------*- C++ -*----------------------------------*\
  =========                 |
  \\      /  F ield         | OpenFOAM: The Open Source CFD Toolbox
   \\    /   O peration     | Website:  https://openfoam.org
    \\  /    A nd           | Version:  10
     \\/     M anipulation  |
\*---------------------------------------------------------------------------*/
FoamFile
{
    format      ascii;
    class       volScalarField;
    location    "12";
    object      k;
}
// * * * * * * * * * * * * * * * * * * * * * * * * * * * * * * * * * * * * * //

dimensions      [0 2 -2 0 0 0 0];

internalField   nonuniform List<scalar> 
75457
(
1.93006
2.194
1.33246
0.697422
1.42982
1.55179
1.7256
1.6183
0.514048
0.509257
0.468565
1.27544
1.09858
0.551386
0.0846515
0.0695269
0.0161283
0.0496695
0.0590903
0.0114798
0.0286129
0.0199215
0.0789429
0.0805869
0.048301
0.0986044
0.102351
0.126844
0.113306
0.171544
0.105781
0.154108
0.15202
0.0606026
0.0512411
0.0749282
0.0599741
0.155899
0.141489
0.0634728
0.066409
0.0595875
0.0679165
0.0444357
0.0801924
0.0184483
0.0111395
0.041361
0.601036
0.188562
0.377194
0.537256
1.24723
0.372767
0.22019
0.240893
0.976023
0.944696
0.808537
1.32592
1.09757
0.671626
0.452485
0.318521
0.0565959
0.328596
0.0870519
0.374949
0.483641
0.908021
0.463412
0.989958
0.362691
0.0291344
0.452136
0.129254
0.136606
2.52776
1.83344
1.40062
2.06042
1.84583
2.28561
1.57446
1.10944
1.10459
1.25856
1.35611
2.46565
1.72465
1.79502
1.40248
1.77189
1.40666
0.911384
0.333743
0.361562
0.3968
1.73155
0.840912
0.802074
1.24427
0.116175
0.0638498
0.0401527
0.0557939
0.18712
0.0407178
1.07555
0.310917
0.374238
0.780659
0.856787
0.694679
0.0740164
0.833682
1.28562
0.457474
0.448212
1.53635
0.0187226
0.0718437
0.0769854
0.186101
0.445424
0.271106
0.844852
0.44018
0.846666
0.0933622
0.169696
0.904915
0.275188
0.588414
0.519249
0.870654
0.361247
0.744237
0.712477
1.30833
0.134446
0.265396
0.461036
0.151111
0.188449
0.652137
0.588925
0.52555
1.21367
0.702046
1.8289
1.10874
0.280017
0.197065
0.615169
0.967502
0.647825
1.27075
0.41378
0.876409
1.32691
0.312939
0.993224
0.00522404
0.00544538
0.00562687
0.00547009
0.00558323
0.00503427
0.00501047
0.00520032
0.00555714
0.00511428
0.00532682
0.00517283
0.0050544
0.685581
0.729673
0.878988
1.11849
0.981993
1.18372
0.6995
0.911659
1.43266
0.527151
0.729528
0.856288
1.35275
2.81339
0.948936
0.574324
0.824977
0.919634
0.631475
1.3531
0.106373
0.24727
0.189002
0.141359
0.0924913
0.568579
0.71462
0.738688
0.47101
0.519296
0.890938
1.52199
1.47674
1.48785
1.19307
1.19712
1.55671
1.7169
1.06542
1.02779
1.7776
1.14435
1.88567
1.85138
1.6755
0.912806
0.94484
1.29329
0.887237
0.955183
1.83196
0.888561
0.835909
0.951891
0.232159
0.222217
1.2529
0.655782
0.87466
0.762186
1.13069
0.40308
0.435236
0.464234
0.473246
1.02995
1.20176
0.896054
1.21594
0.950369
0.725464
0.873833
1.137
1.57794
1.08028
1.23297
0.69489
1.0996
0.721834
0.759545
0.410147
0.222167
0.326844
0.0449634
0.119439
0.142616
0.431537
0.353629
0.948687
1.63687
1.1491
2.14968
1.48904
1.45265
1.67702
1.39156
0.8521
0.885778
0.924798
0.804388
1.00771
0.892225
1.18933
0.853353
1.06198
1.02693
0.974224
0.920242
0.771023
0.846173
0.685996
0.276135
0.313159
0.49471
0.410018
0.469865
0.72779
0.988982
1.07111
1.31437
1.1131
0.926504
0.941615
1.14418
0.961384
0.430571
1.06011
0.403915
0.382859
0.417887
0.403744
0.401752
0.520021
0.603909
0.490377
0.630568
0.475488
0.570413
0.767634
1.15895
1.30814
0.754326
0.676668
1.22068
0.612841
0.607962
0.547832
0.399253
0.23273
0.511686
0.443204
0.459385
0.98705
1.10071
0.599945
0.557854
1.11135
1.28534
0.541724
0.567019
1.18394
1.11105
1.87115
1.0966
1.07344
1.69215
0.786048
0.733742
0.846098
0.412761
0.850411
0.866361
1.01783
0.871529
0.817133
0.45987
0.650582
0.541949
1.10309
1.1831
1.30395
2.29623
0.866004
0.736944
1.38533
1.47724
1.47063
1.40152
0.363283
0.350008
0.426907
0.448842
0.671798
0.552091
1.09303
0.57467
0.62666
0.873629
1.52336
1.07989
0.978641
0.912955
0.993769
0.781673
0.736054
0.657473
0.871995
0.891509
1.24212
1.19285
0.869986
1.07399
0.33852
0.30192
0.775676
0.00400706
0.00418011
0.0037515
0.00373526
0.00421182
0.00439802
0.00396359
0.00426041
0.00415109
0.00512695
0.00379035
0.00371913
0.00370066
0.00372557
0.00377176
0.00382491
0.00367494
0.00369977
0.00391558
0.0039368
0.00380638
0.00357317
0.00353766
0.00351901
0.00390516
0.00383941
0.00373598
0.0035357
0.0034783
0.00368719
0.00373012
0.00388018
0.00391115
0.00369112
0.00370966
0.00382221
0.00378404
0.00374533
0.00378577
0.00388899
0.0038835
0.00373515
0.0038134
0.00376071
0.00376463
0.00372369
0.00378479
0.00388163
0.00400467
0.00375301
0.00386824
0.00386967
0.00380819
0.192084
0.0707519
0.0744755
0.0679232
0.0720386
0.158702
0.0640851
0.0778943
0.0527632
0.186309
0.0528058
0.0527637
0.0564752
0.0603494
0.0456455
0.161485
1.49954
0.936999
0.845613
0.922863
0.421644
0.442807
0.767054
0.736733
0.429803
0.425545
1.87529
1.51134
1.51455
0.97814
0.481489
0.127682
0.0129421
0.0187663
0.0776803
0.0758572
0.0475868
0.0181572
0.0176094
0.0176427
0.0222001
0.0137287
0.0444156
0.0742056
0.0716636
0.0811655
0.249768
0.0911584
0.0562074
0.055305
0.00399954
0.00405733
0.00406634
0.00399671
0.00392579
0.00413697
0.00415696
0.0037904
0.00393335
0.0041072
0.00410661
0.00441161
0.00414208
0.00397214
0.00396907
0.00400622
0.0049143
0.00469667
0.0049762
0.00472516
0.00453292
0.00502726
0.00542611
0.00511442
0.0049622
0.0051148
0.00505366
0.00487951
0.00511736
0.00487349
0.00496917
0.00539086
0.00541351
0.00445512
0.00476185
0.00454159
0.00475223
0.00467534
0.00456268
0.00352993
0.0070943
0.00429252
0.00454324
0.00399643
0.00448829
0.00429672
0.00445118
0.00423104
0.00428224
0.00357146
0.46562
0.405554
0.432779
0.503545
0.381225
0.522719
0.566894
0.605535
0.417212
0.423245
0.418747
0.517711
0.703912
0.495056
0.617729
0.412122
0.571738
0.620032
0.0493499
0.0507766
0.060915
0.0819619
0.0312616
0.0954013
0.0549385
0.0559986
0.0589912
0.113912
0.0653494
0.062634
0.0620627
0.0355244
0.130054
0.119073
0.184016
0.109548
0.193123
0.191315
0.197151
0.125874
0.112175
0.202999
0.203719
0.197569
0.126261
0.0869112
0.0856593
0.163117
0.11623
0.15751
0.00391144
0.00393408
0.00396159
0.00440597
0.0046797
0.00395659
0.00383525
0.00433135
0.00418354
0.00422359
0.00364171
0.00463988
0.312069
0.194265
0.422238
0.149368
0.371492
0.280685
0.299023
0.30986
0.375881
0.0861724
0.0543368
0.0654754
0.064663
0.0549564
0.0642043
0.0666438
0.0128184
0.0435712
0.0098547
0.0356599
0.102067
0.0856729
0.152008
0.0718029
0.0654195
0.0385529
0.0275304
0.0147703
0.110145
0.0295036
0.0412313
0.0409482
0.0062717
0.00715664
0.0404651
0.00799371
0.00150926
0.0569278
0.0429613
0.0128365
0.00015718
0.00293615
0.000673118
0.00196802
0.00313183
0.00281493
0.000770643
0.0565068
0.0509191
0.0509561
0.01632
0.129997
0.103025
0.0687545
0.182967
0.0976419
0.145315
0.111907
0.0584228
0.0976923
0.0554266
0.162271
0.130414
0.109538
0.111619
0.310049
0.316896
0.27377
0.291761
0.280455
0.284573
0.20356
0.234342
0.294893
0.1888
0.196468
0.313774
0.222534
0.195719
0.217285
0.190399
0.193035
0.208994
0.203212
0.429069
0.483265
0.0259037
0.0882151
0.329027
0.174457
0.0377591
0.0725674
0.560025
0.37096
1.0629
1.07032
1.1015
1.13734
1.16879
1.23569
1.15628
1.20307
1.00559
1.01052
1.16933
1.35325
1.37279
1.2697
1.33896
1.28731
1.20221
1.05096
1.14822
1.09641
1.14839
0.0369133
0.027634
0.0884849
0.0628953
0.0718486
0.031223
0.054622
0.0544692
0.0529035
0.165083
0.211142
0.271806
0.0271653
0.210309
0.379745
0.159817
0.269611
0.00408618
0.0610345
0.162502
0.387935
0.0677404
0.0960503
0.373257
0.295254
0.0975354
0.36429
0.122238
0.892097
0.899278
0.879401
1.0771
1.0033
1.1441
1.3104
1.2046
1.12871
1.05065
1.40696
1.20028
1.21466
0.052852
0.0637995
0.0176107
0.0220931
0.0197819
0.0176026
0.0298489
0.0365303
0.114474
0.0408844
0.0699057
0.0775239
0.0202541
0.0212695
0.0763521
0.0384563
0.0727539
0.0701928
0.0515465
0.0961135
0.116098
0.0432108
0.0660003
0.0229196
0.0996672
0.0305715
0.0241358
0.121536
0.111082
0.0192188
0.0723968
0.0917455
0.0727808
0.0676275
0.116881
0.0290488
0.0495404
0.16828
0.095603
0.0415564
0.00567278
0.0132154
0.109095
0.202225
0.055025
0.0584545
0.126404
0.175862
0.0556082
0.0591625
0.0859166
0.0528218
0.0527912
0.108839
0.11949
0.171027
0.0576499
0.0575823
0.0829723
0.176725
0.0669941
0.0544424
0.0922868
0.0530454
0.214822
0.246223
0.0170994
0.0294539
0.044239
0.0612135
0.0272553
0.0340955
0.070149
0.179871
0.265974
0.192657
0.0390716
0.0552009
0.029645
0.120813
0.0728883
0.0273599
0.0234854
0.0223967
0.025579
0.0271965
0.0217505
0.0187664
0.0182166
0.0178633
0.0219663
0.0228782
0.0165537
0.0219567
0.0237858
0.00382332
0.00376114
0.00390785
0.00393088
0.00394652
0.00385776
0.00402865
0.00391244
0.00422376
0.00433634
0.127717
0.0860136
0.137741
0.185977
0.0576733
0.0512677
0.174226
0.255803
0.0708879
0.148102
0.141771
0.144499
0.176713
0.0490876
0.169562
0.141451
0.0325958
0.622451
0.677489
0.644442
1.08367
0.980927
0.773585
0.970374
0.908198
0.947843
1.02683
0.588509
0.586208
0.724409
0.649392
0.889986
0.924733
0.903032
0.618619
0.664109
0.692078
0.00243226
0.00368385
0.00365116
0.00219349
0.00483087
0.0285012
0.0327843
0.0054069
0.00374793
0.00337794
0.0311319
0.0390833
0.00198001
0.0177618
0.0239791
0.045622
1.80491
1.99058
2.31594
2.24593
1.65422
2.03298
1.63576
2.1891
2.6936
2.38875
1.77467
1.80714
2.11254
0.0981749
0.144809
0.123942
0.0726909
0.0660281
0.0761882
0.130735
0.111267
0.0848549
0.0798727
0.048402
0.0834998
0.0404851
0.11644
0.0939524
0.0538467
0.121145
0.109052
0.0494363
0.0449792
0.0435402
0.0527897
0.000622385
0.00383823
0.00262384
0.00162835
0.00152062
0.0259123
0.104724
0.0039026
0.0371736
0.21786
0.243428
0.1272
0.117639
0.144989
0.0380629
0.131013
0.16656
0.125471
0.0460231
0.0455989
0.117434
0.0220993
0.0593389
0.0511122
0.0410776
0.0412555
0.0625103
0.038306
1.05333
1.07847
1.15478
1.11785
1.05514
1.0098
1.04697
1.00293
1.1333
1.05405
1.08114
1.08159
1.1369
1.14652
1.11313
1.12593
0.071424
0.165245
0.134664
0.0749958
0.0108262
0.0190134
0.0265685
0.0116695
0.0107194
0.0102008
0.0870763
0.0585813
0.018767
0.00097487
0.0306198
0.0227645
1.19465
1.63613
1.17607
1.48405
1.32881
1.85363
0.485148
0.593747
0.457178
0.488542
0.502595
0.699206
1.372
1.79434
1.25306
0.807363
1.01464
1.02351
0.716242
1.6416
0.013431
0.00924285
0.00739066
0.00651003
0.00762289
0.00591549
0.00656307
0.00669679
0.00663068
0.0147486
0.0165552
0.00891011
0.00872154
0.00588906
0.0153068
0.0634088
0.0741729
0.124425
0.169402
0.235686
0.235313
0.30278
0.120801
0.412433
0.545534
0.472103
0.233905
0.623802
0.634563
0.0250119
0.0447232
0.0189078
0.0228581
0.0198675
0.0309681
0.0122907
0.00677008
0.0328346
0.00765668
0.0188737
0.00674635
0.0110946
0.00663979
0.00548769
0.00590378
0.074195
0.080431
0.0633776
0.0639302
0.22247
0.229722
0.0419146
0.120426
0.116246
0.0515391
0.219676
0.174493
0.265313
0.165212
0.176384
0.237861
0.243719
0.283052
0.284548
0.012149
0.0520806
0.0235175
0.0259372
0.0137531
0.119904
0.0341764
0.0554217
0.0703717
0.0508078
0.0127433
0.016326
0.0207653
0.0155233
0.0770344
0.060925
0.0467405
0.109799
0.0754014
0.0915919
0.0382433
0.0573046
0.11569
0.0719862
0.0621114
0.016021
0.0118944
0.0105397
0.0780601
0.00483662
0.00649355
0.0254927
0.0229777
0.0124863
0.0110326
0.026133
0.0289688
0.0131632
0.0250718
0.00910618
0.00730468
0.00735017
0.00812602
0.0308989
0.00853609
0.0231608
0.0207852
0.0165796
0.0311834
0.0244158
0.0250769
0.061562
0.0231047
0.0652742
0.0718552
0.0559282
0.0395485
0.52566
1.14399
1.66682
0.88236
1.28833
0.644605
0.799248
1.21246
1.40491
0.472751
0.943339
1.11118
1.61273
0.635847
1.09821
0.305502
0.812581
0.455858
0.404743
0.730149
0.866908
0.665993
0.395432
0.353487
0.348202
1.22398
1.23607
1.23541
1.38309
0.343578
0.354032
0.339979
0.308619
0.334552
0.619955
0.642022
0.560317
0.0429405
0.0861914
0.0243585
0.0439609
0.0281195
0.0192919
0.0126485
0.0305548
0.0175986
0.0164171
0.0166332
0.0159023
0.0160227
0.0164791
0.0162035
0.0125252
0.92827
0.959098
0.919917
0.943193
0.708838
0.766495
0.941564
0.679657
0.689847
0.859011
0.79874
0.919608
0.20448
1.18902
1.36144
0.979599
1.14128
0.290901
0.0713885
0.937509
0.0647007
0.975386
1.26069
0.396007
0.758018
0.291287
1.12547
1.44831
1.06149
0.122914
0.345383
0.43728
1.59937
0.357433
0.732277
0.818399
1.3471
0.383597
0.577573
0.566945
1.08105
0.317352
0.480937
1.54739
0.359617
0.722704
0.392592
0.935632
1.3952
0.755976
0.449533
1.10574
1.22076
0.371187
0.229284
0.873565
0.230635
0.835145
1.37875
0.831127
0.220381
0.264425
1.27033
0.838092
0.271143
0.236855
0.328497
0.253225
0.10886
0.171189
0.135916
0.266918
0.280669
0.0717995
0.0862474
0.0909822
0.21616
0.32555
0.137262
0.16822
0.087278
0.224035
0.241495
0.0837152
0.0788475
0.0445551
0.0374425
0.0408946
0.0466377
0.121139
0.0687034
0.0447767
0.0675375
0.0480528
0.414968
0.706941
0.283092
0.0108644
0.0104613
0.0100464
0.0103643
0.0111692
0.00934743
0.0334743
0.0392851
0.0610824
0.0320586
0.00161374
0.012895
0.0141552
0.00849418
0.0274764
0.0265446
0.078328
0.0303874
0.00657813
0.00738557
0.776349
0.777932
0.740666
0.64515
0.947697
0.938859
0.946574
0.779471
0.577867
0.701266
0.744454
0.746754
0.71151
0.75611
0.630788
0.706305
0.593014
0.577361
0.58245
0.027146
0.0137673
0.0214657
0.0154267
0.609241
0.950393
0.257477
0.440951
0.062135
0.0138869
0.4126
0.0777665
0.0307503
0.252573
0.74756
0.279891
0.141291
0.355196
0.150237
0.363418
0.126687
0.116618
0.211574
0.129166
0.204828
0.809542
1.0255
0.516916
0.527139
0.398677
0.300003
0.206179
0.342914
0.280773
0.616194
0.272278
0.173966
0.176075
0.270889
1.26616
1.44427
1.54501
1.60875
1.42915
1.5851
1.13789
1.28795
1.24026
1.06613
1.05362
1.48449
1.31925
1.0772
1.46691
1.58292
0.0235299
0.0222428
0.0247527
0.0299162
0.0303881
0.026908
0.0503694
0.0418813
0.0448314
0.0276915
0.0314438
0.0300565
0.0454844
0.0351456
0.0358001
0.0345139
0.0417247
0.0391459
0.0394251
0.0304046
0.729288
1.00698
0.601928
1.01305
0.461578
0.524647
0.186223
0.326752
1.12118
0.656586
1.13432
0.941248
0.243386
0.233775
1.15138
0.841548
1.1283
0.735358
1.41931
0.484162
0.0219342
0.0445859
0.0551398
0.0549543
0.0372834
0.0281726
0.0250217
0.0391218
0.0490289
0.0417588
0.0426108
0.0380379
0.0658476
0.0316394
0.0840515
0.0765728
0.0784756
0.505635
1.07498
0.979066
1.85473
0.552192
0.622458
0.797227
0.857091
2.82996
0.814539
0.495727
1.56981
0.0119942
0.0104987
0.00903218
0.00412481
0.0114663
0.00834909
0.00770209
0.00524235
0.00496763
0.0136218
0.0088512
0.00475634
0.0570407
0.000277645
0.0196549
0.00104375
0.0309817
0.0974818
0.00111254
0.0564052
0.0807207
0.164907
0.148598
0.00674502
0.0113949
0.249218
0.176398
0.263544
0.010168
0.0213992
0.0354086
0.00781714
0.0171731
0.0201337
0.0077092
0.0710484
0.0209842
0.0304662
0.00983658
0.0514267
0.149012
0.0433771
0.067016
0.0952205
0.359889
0.0157569
0.0137121
0.263966
0.47278
0.0361123
0.0283099
0.0969179
0.242237
0.0659247
0.243058
0.246911
0.20085
0.105949
0.142045
0.216285
0.154741
0.152853
0.0806417
0.0229709
0.125026
0.068091
0.063313
0.0214526
0.0134312
0.0213955
0.0265155
0.0490886
0.00177825
0.00366524
0.00146139
0.00253852
0.0681951
0.0671558
0.00836214
0.00100613
0.00453814
0.0343783
0.0707281
0.0699088
0.0112349
0.0034988
0.00517519
0.133981
0.076691
0.511896
0.359241
0.12301
0.485723
0.328656
0.219666
0.104874
0.0197393
0.00130433
0.0160133
0.0531872
0.00530192
0.0209679
0.021359
0.00740829
0.0269156
0.0188756
0.0204817
0.0246597
0.0248882
0.0106166
0.0110176
0.0227719
0.0274553
0.0257704
0.0207338
0.0176616
0.026128
0.0200768
0.116639
0.0742515
0.0650643
0.172931
0.0699454
0.581753
1.12504
0.0989026
0.258479
0.345456
0.241847
0.356845
0.314019
0.136832
0.785047
0.939166
1.26237
1.12151
0.499155
0.388101
0.22947
0.0673562
0.0843566
0.381758
0.347382
0.154297
0.148285
0.145117
0.0819384
0.100814
0.156922
0.0957142
0.0820917
0.123481
0.0718937
0.0468988
0.12793
0.194151
0.124936
0.12261
0.366085
0.383868
0.384418
0.379984
0.381094
0.372402
0.37948
0.386642
0.398874
0.37428
0.365509
0.387005
0.445877
0.416009
0.388879
0.37989
0.483971
0.372997
0.414195
0.517627
0.485414
0.411256
0.930264
0.742395
0.573057
0.794999
1.18646
0.72671
0.434074
0.816892
0.435274
0.760897
0.795298
1.51954
1.59483
0.871604
1.44312
1.70041
1.0964
1.55569
1.07687
0.72866
0.498238
0.358682
1.40831
0.996996
1.02063
0.197112
0.336427
1.20954
0.270681
0.999642
0.882982
0.25037
0.225654
0.19146
0.800707
0.982907
0.993261
0.979111
0.924342
0.985763
0.988816
0.935639
1.00535
0.96504
0.95817
0.984649
0.900521
0.836056
0.852827
0.805895
1.01489
0.959295
0.954304
0.856569
0.895816
0.961159
0.878686
0.634563
0.209085
0.235567
0.265603
0.732599
0.544353
0.956266
0.648625
0.560827
0.213071
0.432392
0.754141
0.541578
1.1455
1.07222
0.433444
0.463972
0.508399
1.47128
0.902455
0.951294
0.647572
0.401575
0.97433
1.08169
0.463597
0.344934
0.256336
0.948026
0.810945
1.03539
1.32336
0.603224
0.892625
0.896487
0.263195
0.656015
0.716138
0.28505
0.279695
0.993374
0.792822
0.812665
1.14596
0.822045
0.857325
0.304007
0.280713
0.660764
0.307159
0.49812
0.525526
0.464017
0.517205
0.481732
0.419219
0.41712
0.482513
0.391777
0.370336
0.344183
0.331843
0.384725
0.304351
0.310599
0.341576
0.346496
0.0763265
0.087349
0.0901088
0.0891004
0.0879663
0.0990311
0.0841126
0.0991188
0.0760951
0.0752833
0.0776782
0.0993466
0.0806161
0.0939208
0.0854168
0.0913207
0.0837945
0.0816409
0.0852495
0.114357
0.0980734
0.0859565
0.0848695
0.0625084
0.0564525
0.0566023
0.0377964
0.0152467
0.0106474
0.0385984
0.0407427
0.0086934
0.00505737
0.0244444
0.023297
0.00322227
0.0202327
0.0113488
0.0163176
0.0174853
1.67458
1.28428
1.25397
1.42089
1.17759
1.40779
2.12133
1.19653
1.26194
1.98199
1.21967
1.10881
1.27622
1.17755
3.19535
1.43532
2.18673
0.123194
0.0212796
0.136735
0.67662
0.54446
0.0273313
0.0902421
0.0808283
0.0115503
0.262199
0.406885
0.698966
0.155738
0.146443
0.47049
0.685882
0.091814
0.0971964
0.104329
0.102754
0.139658
0.188499
0.113069
0.942081
0.758557
0.151542
0.134355
0.279861
0.48631
0.784314
0.5222
0.616074
0.631156
0.780147
1.24013
1.64786
1.0475
1.51108
0.324851
0.641192
0.291806
0.0382076
0.0332723
0.0395224
0.0324203
0.015857
0.0352173
0.0288351
0.0259642
0.0341997
0.0403973
0.0335754
0.0313164
0.0260647
0.03154
0.137935
0.169874
0.1014
0.108791
0.237111
0.0924316
0.106897
0.238098
0.353036
0.273364
0.416678
0.171877
0.163132
0.25236
0.0759091
0.602909
0.836781
0.535918
0.716289
1.27197
1.06739
1.28996
1.50574
0.706495
0.65622
1.25796
1.34262
1.1839
1.39287
1.2885
1.26421
1.30639
1.35367
0.0294514
0.0410709
0.0249033
0.02427
0.0273115
0.0239138
0.0282341
0.0222388
0.0220765
0.0174723
0.932319
0.918218
0.667438
1.12921
0.235149
0.194739
0.144272
0.293133
0.533241
0.652298
0.905447
0.934922
0.77102
0.175297
0.194058
0.0676376
0.594494
0.823515
0.180347
0.187129
0.157932
0.188299
0.626392
0.521877
0.522142
0.451553
0.609325
0.675283
0.435637
0.710029
0.64839
0.670894
0.609545
0.678018
0.378832
0.666724
0.651494
0.448084
0.355193
0.614435
0.00696341
0.00685428
0.00651574
0.00698973
0.00663066
0.00633096
0.00670024
0.00656684
0.0061456
0.00645045
0.00627217
0.00653338
0.00675235
0.00654526
0.0062855
0.00601717
0.00612608
0.00591772
0.00626911
0.957816
1.03839
0.743713
0.888889
0.739061
0.739236
0.829968
0.652467
0.71471
0.655022
0.933958
1.01512
1.01339
0.894232
0.755586
0.728338
0.85921
0.930188
0.0277353
0.028937
0.0242727
0.0220802
0.0370011
0.0310581
0.0358736
0.0302544
0.0280233
0.0471982
0.0354742
0.036878
0.0370076
0.0444467
0.0597928
0.0571492
0.00401561
0.00411957
0.00410956
0.00403504
0.00406851
0.00400791
0.00399275
0.00394961
0.00397555
0.00396866
0.003978
0.00393015
0.00398754
0.00460179
0.00456563
0.00468399
0.00467093
0.00459741
0.00447042
0.00496048
0.00471922
0.00508194
0.00475905
0.00487777
0.00486477
0.00479916
0.00494688
0.00463676
0.00426989
0.00481602
0.00405201
0.00445994
0.00460469
0.00195262
0.00407719
0.00426834
0.00444765
0.00442127
0.00456295
0.00380081
0.00430348
0.00425575
0.00430084
0.0036848
0.00883111
0.00882501
0.00861008
0.00800892
0.00813918
0.00846637
0.00787991
0.00791457
0.00823104
0.00831441
0.00998211
0.00982569
0.00840139
0.00802049
0.0082688
0.00832061
0.0097659
0.00867561
0.00888307
0.00869544
0.698514
0.682778
0.621258
0.39805
0.542739
0.476375
0.690297
0.56018
0.640913
0.310402
0.339338
0.610229
0.482889
0.575739
0.665971
1.02097
0.703723
0.788174
0.860377
0.924583
1.09172
0.831255
0.905033
0.94461
1.02941
1.10517
1.26942
1.03576
0.484046
0.445225
0.509885
1.03689
1.05044
0.0116708
0.0108919
0.0109276
0.00960724
0.0124177
0.0110853
0.00963121
0.00950089
0.0102604
0.0109184
0.00879813
0.00871652
0.00858047
0.00923508
0.00975056
0.272722
0.175924
0.153534
0.143756
0.315305
0.157866
0.235332
0.309267
0.366947
0.00809653
0.00851156
0.00749344
0.00751548
0.00817824
0.00736938
0.00728189
0.00771977
0.00703461
0.00679753
0.00684505
0.00668463
0.00703183
0.00786796
0.00735298
0.00686126
0.00691948
0.00715553
0.00782156
0.0081893
0.00697571
0.00717463
0.00272318
0.00396342
0.00250017
0.00284199
0.00393316
0.00746394
0.00328199
0.00244714
0.00193223
0.00263646
0.00212594
0.00279045
0.00315268
0.00150893
0.00229036
0.00296673
0.00302465
0.00642837
0.00319483
0.00705454
0.00409442
0.00400556
0.00382424
0.00420593
0.00480198
0.00413643
0.00440724
0.00465808
0.00428944
0.00401114
0.00385638
0.00372441
0.00376202
0.00427876
0.00418656
0.00457724
0.00443443
0.00438926
0.00409671
0.00429539
0.00405825
0.00462439
0.003764
0.00404922
0.00429194
0.00370561
0.0229054
0.0419841
0.036038
0.0281132
0.0131315
0.029958
4.34165e-05
0.00430593
0.0349711
0.0140078
0.044808
0.0239241
0.0203551
0.00246902
0.0048956
0.0165345
0.00528905
0.00703272
0.00209329
0.0047219
0.00540169
0.00686971
0.00482229
0.0172256
0.00516617
0.00800899
0.00621261
0.00620084
0.00600794
0.00613689
0.00778961
0.00583685
0.00644597
0.0192297
0.00941475
0.0120508
0.0149441
0.0079421
0.0107043
0.0097825
0.00965474
0.00808799
0.00907765
0.00802802
0.00375141
0.00382425
0.00433603
0.00374879
0.00369086
0.00462233
0.00399419
0.00369576
0.00363662
0.00381309
0.0046276
0.0037037
0.00349645
0.00547869
0.00600059
0.00559867
0.00507892
0.00559514
0.00597599
0.00641802
0.00578161
0.00554898
0.00557982
0.00550112
0.00601332
0.00569584
0.261785
0.173035
0.220708
0.259652
0.213448
0.173213
0.20634
0.221756
0.227448
0.296596
0.320307
0.278251
0.292363
0.0167566
0.00986595
0.0116295
0.0103013
0.00947454
0.016471
0.00640837
0.0195456
0.00994838
0.00879778
0.00987504
0.00787095
0.00514682
0.00505744
0.00948331
0.0172926
0.0106209
0.017324
0.0176926
0.0285869
0.00951744
0.00681408
0.0383362
0.0325761
0.0805375
0.0217358
0.036457
0.0221553
0.0117823
0.031284
0.0149205
0.0165319
0.0215455
0.013488
0.0200138
0.0141985
0.0301996
0.0164031
0.0100792
0.0109073
0.0267663
0.0145085
0.0117753
0.0145797
0.0181005
1.01995
1.07924
1.08422
0.927566
1.10735
1.10541
1.22915
1.13309
1.15292
1.26827
1.21272
0.00397931
0.00385974
0.00411864
0.00428472
0.00442056
0.0040608
0.00426515
0.00411403
0.00429694
0.0043074
0.00407454
0.00409581
0.00417764
0.00229023
0.008678
0.00246462
0.0435321
0.0032115
0.00608542
0.00393785
0.00445733
0.00588911
0.0077724
0.00447953
0.00547822
0.00546618
0.0049164
0.0107865
0.00414143
0.0052632
0.0050353
0.00854569
0.00443395
0.00505828
0.0046183
0.00357029
0.00382009
0.00306475
0.00207002
0.00461336
0.00337117
0.00346691
0.00461764
0.00351381
0.00377156
0.003978
0.00379759
0.00386493
0.0034429
0.00330696
0.00378985
0.00384345
0.003975
0.00392926
0.00424908
0.00419226
0.00403092
0.00391728
0.00395153
0.00400786
0.00401469
0.00396071
0.00450316
0.0041117
0.00411304
0.0158827
0.0146068
0.0185486
0.0129952
0.0132511
0.0171458
0.0186986
0.0151667
0.0173659
0.0161048
0.0132965
0.0174578
0.0142767
0.000994211
0.00486727
0.00439142
0.00254595
0.00316734
0.00350059
0.00335543
0.00394327
0.0037206
0.00363178
0.00355447
0.00324633
0.00077821
0.0034772
0.00387496
0.00301725
0.00416494
0.00320701
0.00705083
0.0111561
0.00290351
0.0100087
0.0142905
0.00999581
0.0101318
0.0185342
0.0161056
0.0130792
0.0234304
0.0250542
0.0188507
0.0245988
0.0303686
0.0180881
0.0195725
0.0220663
0.0254701
0.0189258
0.0247566
0.269461
0.913154
0.21514
0.350826
0.280875
0.645765
0.0803153
0.0906044
0.647794
0.0817366
0.345223
1.0154
0.424996
0.278175
0.379477
0.244275
0.0565224
0.264053
0.412123
0.100074
0.563611
0.352604
0.139617
0.0585566
0.241314
0.49264
0.515018
0.00852074
0.021865
0.0225231
0.00248817
0.00875111
0.550024
0.379574
0.494937
0.0540596
1.044
0.109453
1.09576
2.24428
1.83285
0.981145
1.98881
2.28376
0.880376
1.66866
0.32389
1.33323
0.996957
0.65122
0.830133
0.962554
0.732694
0.746881
1.22549
0.94329
0.651687
0.474365
0.925307
0.791299
0.494296
0.539227
0.919974
0.883745
0.670249
0.0429686
0.0787846
0.126703
0.117949
0.0712987
0.13133
0.0602012
0.197509
0.022558
0.042702
0.361642
0.531429
0.329041
0.421812
0.231742
0.0915633
0.112286
0.142242
0.379497
0.105498
0.338415
0.391615
0.211555
0.185883
0.207638
0.144397
0.177052
0.283704
0.49614
0.418011
0.084111
0.279362
0.455983
0.287262
0.048995
0.00313782
0.0268405
0.0112465
0.0032856
0.00161082
0.0333267
0.00439357
0.0239339
0.0327127
0.0403883
0.0322492
0.00393772
0.000264515
0.00319295
0.00508576
0.0126541
0.0125161
0.811284
1.14412
1.05202
1.10741
1.34892
0.949882
1.95634
0.202355
1.70823
0.778015
0.293798
0.0953624
0.28201
0.428371
1.02997
0.214024
1.16316
0.802576
0.229856
0.348428
0.0507345
0.258853
0.00276816
0.00300522
0.00180186
0.00189996
0.00282848
0.00277972
0.0028372
0.00267014
0.00279476
0.00309326
0.0026673
0.00271708
0.00252663
0.00256626
0.00258147
0.00230781
0.0026037
0.00279258
0.00271604
0.00256838
0.00801279
0.0259817
0.0791315
0.00428208
0.00152339
0.00297096
0.0850631
0.000700514
0.0186227
0.00360275
0.00372345
0.0259078
0.00354041
0.00367341
0.0252796
2.19071
3.27309
2.50709
3.56918
3.22542
3.27155
3.72192
1.87516
0.0114935
0.00780228
0.0227215
0.019448
0.0201141
0.00555644
0.0100782
0.00556987
0.0196379
0.0151034
0.00578496
0.0143076
0.0814559
0.118124
0.971955
0.364715
0.0883021
0.160727
0.895457
0.674091
0.879784
0.930307
1.31615
0.680761
1.08575
1.71449
0.522273
0.202372
0.206351
0.285412
0.00235154
0.0051711
0.0060026
0.00736809
0.00685519
0.00227088
0.00299477
0.00572935
0.0050884
0.00644293
0.00937454
0.00444412
0.0037722
0.00686803
0.0037115
0.00835529
0.0100252
0.00480463
0.0434868
0.0441274
0.0664138
0.0684542
0.0588951
0.0629844
0.0340614
0.0421511
0.0500189
0.0766735
0.0684602
0.0456312
0.0965242
0.0471859
0.0687502
0.0703213
0.0639534
0.0419327
0.041057
0.0668424
0.0709479
0.0376242
0.0145513
0.0131875
0.0150964
0.0177359
0.013915
0.0167939
0.0146708
0.0130783
0.0156651
0.0174734
0.0172526
0.0157969
0.0155465
0.0144158
0.0157442
0.0140283
3.96123
3.46557
3.1654
3.98838
3.16182
3.10388
2.26532
1.66598
1.09946
1.08364
1.16224
1.18232
2.43512
1.20396
1.51211
1.35606
1.65371
1.94284
0.0628413
0.133356
0.118846
0.0605267
0.0341451
0.0194784
0.0600882
0.0718366
0.0872217
0.0692271
0.0376751
0.0308487
0.0262375
0.0300247
0.0530901
0.0377946
0.00846641
0.00280042
0.00278119
0.00277302
0.00410856
0.00296017
0.00298965
0.00298601
0.00211888
0.00200432
0.0116152
0.00887822
0.016002
0.000458135
0.00261981
0.00212034
0.00240396
0.00264593
0.00639645
0.0126046
0.457702
0.449587
0.364558
0.206985
0.0496061
0.212086
0.0111003
0.157468
0.214847
0.338577
0.0568008
0.045468
0.119115
0.140575
0.06858
0.0803961
0.0387548
0.0169244
0.0177337
0.0345745
0.0514284
0.0630806
0.0164339
0.0611591
0.0196834
0.0175511
0.0146034
0.0247364
0.240799
0.169528
0.10316
0.20155
0.294194
0.0628867
0.0455752
0.184631
0.198609
0.178088
0.0478201
0.0357304
0.106637
0.13149
0.0806795
0.0572396
0.0914298
0.0373661
0.0335558
0.00502795
0.0394198
0.0381764
0.0433156
0.0423542
0.0278092
0.0327354
0.0158613
0.0140686
0.0192938
0.0124609
0.0458944
0.0450786
0.0238311
0.038071
0.0356528
0.0376117
0.0578429
0.0241547
0.0106194
0.079922
0.0666721
0.030046
0.0301127
0.0492031
0.000671021
0.00162252
0.00595559
0.000718302
0.00391404
0.00175589
0.00209414
0.00194807
0.015844
0.035506
0.0299294
0.0061898
0.00587675
0.0126127
0.00906514
0.0116567
0.00773698
0.00847399
0.00326836
0.00491964
0.000560401
0.00929772
0.00905901
0.00498707
0.00466565
0.00499523
0.00500934
0.00460527
0.00476707
0.005056
0.0048637
0.00485984
0.00482923
0.00496879
0.00473093
0.00458003
0.0047828
0.0120714
0.0124056
0.0167161
0.016247
0.0171409
0.017274
0.0119648
0.0106777
0.0142595
0.0151544
0.0123716
0.0153333
0.0132159
0.013812
0.0427754
0.0465353
0.0472725
0.0558108
0.116632
0.119603
0.12503
0.136367
0.0443661
0.0837336
0.0788486
0.0792482
0.11199
0.0772663
0.0696798
0.378901
0.45537
0.0424678
0.00640435
0.138744
0.389091
0.486167
0.014306
0.0549306
0.0281821
0.0606512
0.137022
0.0355185
0.0555575
0.0267314
0.00698085
0.0399349
0.45942
0.454254
0.432347
0.449471
0.433833
0.437845
0.4442
0.470802
0.426609
0.418236
0.438855
0.529785
0.567573
0.439433
0.398012
0.481284
0.557276
0.557521
0.594912
0.55747
0.554037
0.55554
0.187701
0.197917
0.278034
0.295557
0.324241
0.53167
0.173306
0.175227
0.168643
0.30152
0.159633
0.137281
0.479463
0.402594
0.336282
0.110846
0.170847
0.0831415
0.0651887
0.219965
0.202577
0.207293
0.149653
0.217961
0.060349
0.155017
0.0681984
0.206962
0.245967
0.152106
0.187251
0.358264
0.362879
0.169081
0.259177
0.359565
0.408933
0.398585
0.31791
0.277322
0.269318
0.272253
0.296414
0.131622
0.182074
0.338237
0.20312
0.192894
0.213037
0.00356327
0.00373449
0.00393012
0.00358519
0.00334292
0.00369648
0.00333713
0.00337863
0.00361671
0.00338853
0.00335199
0.00333804
0.00336566
0.00340408
0.00336035
0.00335451
0.00335345
0.00335768
0.00331213
0.00336546
0.00018018
0.0119639
0.00440301
0.00584811
0.0274277
0.0103144
0.00552026
0.0187489
0.00709646
0.00557291
0.00380977
0.0351239
0.00663395
0.00609843
0.00602874
0.00602525
0.00667676
0.00623069
0.00689675
0.00693596
0.00642955
0.00621077
0.00612505
0.00621738
0.00600968
0.00693837
0.00672088
0.0413366
0.0501953
0.0455123
0.0466088
0.224279
0.190327
0.155992
0.159413
0.203433
0.0566559
0.0820827
0.0320133
0.036936
0.133571
0.0984806
0.0786506
0.0783464
0.0753605
0.119282
0.093448
0.0728706
0.198295
0.177776
0.374495