/*--------------------------------*- C++ -*----------------------------------*\
  =========                 |
  \\      /  F ield         | OpenFOAM: The Open Source CFD Toolbox
   \\    /   O peration     | Website:  https://openfoam.org
    \\  /    A nd           | Version:  10
     \\/     M anipulation  |
\*---------------------------------------------------------------------------*/
FoamFile
{
    format      ascii;
    class       volScalarField;
    location    "12";
    object      nut;
}
// * * * * * * * * * * * * * * * * * * * * * * * * * * * * * * * * * * * * * //

dimensions      [0 2 -1 0 0 0 0];

internalField   nonuniform List<scalar> 
75457
(
0.0590822
0.0658294
0.0533215
0.0221377
0.0599454
0.0246552
0.0627804
0.01991
0.0305313
0.0304468
0.02959
0.0450996
0.0588544
0.0210795
0.0353945
0.0292198
0.00793684
0.0208293
0.0254704
0.00560189
0.0129689
0.00888277
0.0328676
0.0339939
0.0210925
0.0385804
0.0395972
0.0560187
0.0483266
0.0700758
0.0491356
0.0623712
0.0603628
0.0297943
0.0258036
0.0357802
0.0298666
0.0599592
0.0561943
0.0314502
0.0321894
0.0297941
0.0335267
0.0170574
0.0283384
0.00786934
0.00492443
0.0160689
0.097789
0.0543528
0.0765436
0.0957755
0.0895492
0.0791723
0.0583324
0.0605493
0.123707
0.106781
0.101221
0.0150814
0.0905305
0.101696
0.0518413
0.0443338
0.00801011
0.0410973
0.013055
0.0452379
0.0569688
0.0116194
0.056529
0.012691
0.0467448
0.00376494
0.0560684
0.0180909
0.0179919
0.159262
0.170079
0.20818
0.138478
0.125534
0.216337
0.247285
0.158697
0.206391
0.207229
0.140771
0.188027
0.123356
0.249889
0.249378
0.140042
0.181434
0.160273
0.098681
0.0982315
0.101382
0.0141609
0.122836
0.0954393
0.112885
0.00525002
0.0031911
0.00101393
0.00135682
0.0089821
0.00217806
0.0101468
0.0428373
0.0665922
0.00812233
0.00808465
0.0517674
0.0139208
0.0846554
0.0116536
0.0496369
0.0520657
0.0136379
0.00310134
0.0106339
0.0114906
0.0290137
0.0585412
0.035756
0.00756942
0.0681921
0.0739882
0.0129664
0.0247458
0.130699
0.0419555
0.0968011
0.155796
0.0567343
0.0512815
0.136289
0.12452
0.00991502
0.0304894
0.0491795
0.0693012
0.0348198
0.0413151
0.109096
0.0828756
0.063726
0.0678526
0.13805
0.0111943
0.119078
0.0546976
0.0476486
0.0682083
0.0708123
0.156734
0.0078062
0.0780249
0.123777
0.00812369
0.0583824
0.121246
0.00086402
0.000869659
0.000861226
0.000878666
0.000872278
0.000868897
0.000864996
0.000855792
0.000882721
0.000849142
0.00086689
0.000867864
0.000868251
0.0788923
0.0920521
0.115797
0.0961321
0.208714
0.00724791
0.180825
0.0752159
0.00872019
0.102086
0.191516
0.0891467
0.0756808
0.0173413
0.120351
0.0727734
0.0966872
0.0707212
0.068389
0.0136827
0.026637
0.0539751
0.0466986
0.032229
0.0237908
0.0764706
0.0827204
0.00802162
0.0759193
0.0726111
0.0693066
0.129856
0.117203
0.116944
0.107039
0.104753
0.0128434
0.0133275
0.111334
0.0933391
0.0145146
0.103641
0.0146325
0.0153705
0.0634189
0.106955
0.0772247
0.00982323
0.0831422
0.0835725
0.0138886
0.0674422
0.106153
0.00721059
0.0460026
0.0446149
0.0634325
0.078534
0.0915314
0.105539
0.121371
0.0896417
0.0908823
0.0922514
0.0894278
0.113711
0.00935531
0.124931
0.0734998
0.0936387
0.104153
0.119243
0.104114
0.0124087
0.103007
0.00964444
0.0712042
0.0104427
0.0912004
0.00717912
0.0653569
0.0279062
0.0419145
0.00876129
0.0319285
0.0350027
0.0946608
0.0583117
0.0927812
0.0176862
0.0923792
0.0159198
0.0160407
0.0711848
0.0121793
0.0800624
0.139773
0.1371
0.0896149
0.128241
0.0944341
0.0776425
0.0110507
0.0834587
0.111657
0.00947637
0.0996392
0.00854306
0.103542
0.00781409
0.100744
0.0659089
0.0749523
0.0905047
0.0811531
0.0859594
0.147016
0.00905384
0.0686791
0.0121597
0.0697707
0.109717
0.110526
0.0104933
0.116772
0.0505099
0.0292925
0.125282
0.0743688
0.253576
0.0112479
0.154026
0.211895
0.0163679
0.289473
0.137956
0.105482
0.126983
0.0689721
0.0550179
0.0600741
0.0677859
0.0561314
0.0258979
0.0431079
0.0648663
0.0583892
0.0259803
0.0103958
0.112734
0.0959694
0.0890025
0.122645
0.0852388
0.0550704
0.0579271
0.098953
0.00843323
0.0952724
0.097
0.135787
0.139541
0.0124569
0.110513
0.128219
0.0113148
0.12533
0.11122
0.0395872
0.0672109
0.0774273
0.117187
0.0330696
0.103357
0.141491
0.0264699
0.100712
0.116122
0.116049
0.145804
0.130279
0.0210356
0.104983
0.134537
0.0181398
0.0137073
0.0195358
0.0130849
0.0843617
0.0866216
0.0810076
0.0906477
0.0918657
0.0874563
0.0999559
0.0938848
0.0934102
0.101633
0.0133641
0.0861041
0.0861145
0.121069
0.00864576
0.112586
0.0831058
0.0809495
0.0143128
0.0198593
0.0684535
0.288936
0.100786
0.122717
0.0692871
0.0700563
0.0936837
0.000886125
0.000914204
0.000848437
0.000846632
0.000918245
0.000954215
0.000878703
0.000932382
0.000902329
0.00110521
0.000838051
0.000839195
0.000818876
0.000830426
0.000847633
0.000838891
0.000827004
0.000837687
0.000897577
0.000902754
0.000857175
0.000816297
0.000793814
0.000801785
0.000868971
0.000857652
0.00085648
0.000798916
0.000788757
0.000826572
0.000838427
0.000911201
0.000904882
0.000850914
0.000848174
0.000885843
0.000869727
0.000853815
0.000853487
0.000912399
0.000902007
0.000876388
0.000895864
0.000869749
0.00086132
0.000858403
0.000856277
0.000893456
0.000916635
0.000864717
0.000884612
0.000893808
0.000873447
0.0515227
0.0248529
0.0260205
0.0237965
0.0253146
0.0448875
0.0223236
0.0273091
0.0192758
0.0489356
0.0195973
0.0189534
0.0202587
0.0213145
0.0171855
0.0473018
0.0469428
0.0400865
0.0515847
0.0255662
0.0318636
0.0330866
0.0594406
0.024463
0.0318828
0.0306994
0.0453302
0.0366564
0.0513566
0.0308018
0.0277279
0.0109674
0.00362432
0.0053414
0.0205855
0.0193856
0.0128253
0.00500337
0.00494755
0.0050232
0.00616523
0.00378082
0.0121291
0.0192566
0.0187301
0.0225272
0.0532874
0.0244541
0.0154121
0.0151376
0.000877763
0.000879516
0.000888007
0.000886457
0.00087662
0.00091609
0.000918006
0.000834118
0.000865838
0.000907615
0.00090117
0.0009533
0.000911367
0.000866368
0.000861506
0.000866307
0.000842668
0.00083913
0.00084099
0.000844761
0.000845183
0.000835821
0.000852918
0.000847179
0.000846186
0.000847201
0.000859433
0.000847341
0.000850799
0.000849066
0.000854955
0.000862928
0.000853742
0.000945269
0.000978182
0.000971667
0.00101004
0.00101037
0.000992882
0.000753825
0.00147583
0.000931995
0.00100898
0.000845866
0.000984514
0.00095562
0.000987175
0.000924388
0.000963406
0.000772763
0.104556
0.103852
0.100831
0.100484
0.105359
0.115164
0.138208
0.13381
0.109474
0.1164
0.102156
0.100937
0.145011
0.104659
0.140431
0.0991367
0.111371
0.117114
0.0225947
0.023656
0.0279123
0.0342428
0.0151575
0.0384872
0.0250747
0.0259782
0.0272833
0.0441061
0.0289266
0.0291251
0.0283402
0.0167945
0.0492483
0.0457536
0.0641731
0.0418836
0.0655135
0.0652897
0.0672598
0.0468795
0.0428361
0.0681119
0.0680593
0.0671177
0.0475377
0.0343061
0.0338829
0.0578894
0.0433644
0.0563305
0.000919361
0.000920953
0.000922331
0.000979296
0.00102871
0.000921995
0.000892917
0.000963125
0.000945232
0.000944544
0.000852671
0.00102346
0.0780433
0.056263
0.0978296
0.0455701
0.0876927
0.0722582
0.0717387
0.0749334
0.0906667
0.0290375
0.0190497
0.0221168
0.0197287
0.0170016
0.0215068
0.0204379
0.00645661
0.0169237
0.00511275
0.0148704
0.0283964
0.0262468
0.032277
0.023388
0.0219929
0.015744
0.0122725
0.00719619
0.0278105
0.013316
0.0175202
0.0156248
0.00171955
0.00197319
0.0110844
0.00216935
0.00039652
0.0153821
0.0117754
0.00356347
4.38047e-05
0.00079841
0.000181547
0.000534793
0.000847419
0.000747937
0.000204519
0.0153606
0.0139777
0.0137094
0.00454506
0.0521176
0.0417579
0.0312184
0.0655126
0.0402187
0.0535512
0.0430108
0.0255143
0.0395074
0.0255956
0.0607512
0.0511755
0.0449666
0.0456011
0.107266
0.118233
0.0984889
0.102013
0.103968
0.102413
0.0784745
0.0933276
0.114265
0.0781553
0.0798442
0.116466
0.0868999
0.0783371
0.0853978
0.0815816
0.0805675
0.0826632
0.0404476
0.0687614
0.0758158
0.00656379
0.0223288
0.0608169
0.0370603
0.0112634
0.019774
0.080997
0.0666562
0.188394
0.195314
0.178277
0.111944
0.131948
0.177944
0.181975
0.145704
0.182257
0.180377
0.175831
0.1433
0.144026
0.182579
0.149622
0.164217
0.174205
0.176781
0.164787
0.122183
0.151164
0.0135012
0.00997025
0.0294384
0.0219485
0.0250454
0.0117153
0.0195019
0.0192951
0.0188597
0.0472939
0.0543961
0.0624064
0.0103826
0.0551812
0.0734522
0.0449533
0.0610966
0.00190525
0.0202552
0.0363315
0.0279017
0.0219923
0.0282031
0.0424348
0.0222736
0.0213291
0.045959
0.0219971
0.196066
0.21841
0.202846
0.163521
0.174175
0.177161
0.177557
0.158584
0.14713
0.171784
0.177718
0.173466
0.157485
0.0254233
0.0298855
0.00943691
0.0116521
0.010126
0.00923735
0.0147192
0.0177925
0.046109
0.0204852
0.0321712
0.034618
0.0108966
0.0109836
0.0330914
0.0199624
0.0336004
0.0329087
0.0251296
0.0391779
0.0457937
0.0215409
0.0255094
0.00989775
0.036039
0.0130589
0.010424
0.0408684
0.0396184
0.00870257
0.0283308
0.0326768
0.0277208
0.0261018
0.0401912
0.0130385
0.0206629
0.0540498
0.0359151
0.0180205
0.002732
0.00628107
0.0400661
0.0580801
0.0252624
0.0258479
0.0440972
0.0543831
0.0253171
0.027255
0.0346105
0.023846
0.0236828
0.0405073
0.0432245
0.0537744
0.0253284
0.0256781
0.0342547
0.0548823
0.0302556
0.0247762
0.0376154
0.0248024
0.052551
0.0452428
0.00818917
0.0131428
0.0177585
0.0219577
0.0122693
0.0145478
0.0253962
0.0516072
0.0642776
0.0518773
0.0166043
0.0241763
0.0136716
0.0444742
0.0314258
0.0101815
0.00879048
0.00901133
0.0100917
0.0107478
0.0089314
0.00795847
0.00737693
0.00723657
0.00863079
0.00924582
0.00703888
0.00855243
0.00901722
0.000860231
0.000793728
0.000806996
0.00086732
0.000842207
0.000814258
0.00083129
0.000849101
0.000899157
0.00090155
0.0422723
0.032194
0.0454193
0.0547226
0.0228224
0.0204699
0.0520504
0.062755
0.0273362
0.0446448
0.0446319
0.0453354
0.0493948
0.019011
0.048974
0.0443262
0.0129681
0.108233
0.11162
0.109012
0.171907
0.163565
0.135917
0.156166
0.153631
0.164776
0.179468
0.100417
0.10217
0.120213
0.113425
0.145687
0.164987
0.158232
0.112283
0.117125
0.124756
0.00051008
0.000762122
0.000768808
0.000459093
0.000961683
0.00553013
0.00585261
0.00109929
0.000761326
0.000704274
0.00568123
0.00706483
0.000416248
0.00365107
0.00470745
0.00784023
0.187394
0.241968
0.315353
0.283088
0.138732
0.214209
0.135364
0.185698
0.275042
0.251215
0.149082
0.167784
0.202019
0.0334278
0.0459021
0.0417947
0.0260574
0.0244365
0.0276876
0.0422999
0.0374073
0.0305037
0.0283277
0.0191375
0.029422
0.0105049
0.0273735
0.0235522
0.0138105
0.0289268
0.0265941
0.0131221
0.0120375
0.0117572
0.0139913
0.000163816
0.00101831
0.000680681
0.000425452
0.000387876
0.00672604
0.0260135
0.00101198
0.0096538
0.0545958
0.0612455
0.0338745
0.031359
0.0364352
0.0128441
0.0381145
0.043853
0.0357552
0.0165304
0.0163444
0.0346977
0.00838055
0.0198419
0.0173531
0.0150727
0.015239
0.021121
0.013848
0.18304
0.137971
0.170476
0.188188
0.146992
0.154096
0.112075
0.200275
0.159918
0.193165
0.193872
0.202775
0.188942
0.169877
0.186578
0.138942
0.0158904
0.0336173
0.0290738
0.0170312
0.00246336
0.00424326
0.00601703
0.00266084
0.00242849
0.00226353
0.0189819
0.0130748
0.00411524
0.00021339
0.00637475
0.00490225
0.0223489
0.137234
0.0903783
0.122065
0.0244515
0.124195
0.0839624
0.0627735
0.0770542
0.0772036
0.0822534
0.102128
0.156073
0.166293
0.0926438
0.0957609
0.0983274
0.0979098
0.0845612
0.164075
0.0020121
0.00121122
0.00100621
0.000920176
0.00111486
0.000826859
0.000848815
0.000907901
0.000960905
0.00201659
0.00224205
0.00126251
0.001164
0.000845493
0.00214581
0.012669
0.0139257
0.0234598
0.0317525
0.0396266
0.0372647
0.0421298
0.0198782
0.0548457
0.068606
0.0628855
0.0348631
0.0732611
0.0703438
0.0067031
0.0108283
0.00521697
0.00615023
0.00552878
0.00814073
0.00359187
0.0020927
0.0083117
0.00220345
0.00522576
0.00209022
0.00327684
0.00206346
0.00169214
0.00184851
0.0311242
0.0331271
0.0272765
0.0272064
0.0619597
0.062462
0.0191508
0.042049
0.0402239
0.0235084
0.0629381
0.0530642
0.0647282
0.0511528
0.054474
0.0634112
0.0669127
0.0648315
0.0633277
0.00456585
0.0157217
0.00783659
0.0090803
0.00500073
0.0312635
0.010924
0.0165476
0.0196015
0.01491
0.0049165
0.0062096
0.00718429
0.00581745
0.0216432
0.0182832
0.0168555
0.0353239
0.0262094
0.0306604
0.0145451
0.0208962
0.0373141
0.0257111
0.0224037
0.00193987
0.00165478
0.00146363
0.00960527
0.000568105
0.000860584
0.0034539
0.00303326
0.00165553
0.00147699
0.00343283
0.00389093
0.00160185
0.0031396
0.00112791
0.000877255
0.000914223
0.00103697
0.00417619
0.00108639
0.00743284
0.00675467
0.00545293
0.0103594
0.00802191
0.0078357
0.0207912
0.00759018
0.0205271
0.0235376
0.0185142
0.0131182
0.109933
0.162151
0.0137509
0.163421
0.0689716
0.101069
0.070077
0.00987534
0.0115349
0.0920804
0.0817053
0.0776616
0.0131243
0.095625
0.0963615
0.077131
0.0972259
0.0865082
0.0872995
0.0905514
0.0913838
0.0892191
0.0863086
0.0910297
0.0913928
0.0995668
0.0152939
0.0909398
0.0173827
0.0911662
0.0902048
0.0899903
0.0851226
0.0892336
0.111353
0.103293
0.108136
0.0216575
0.0376987
0.013263
0.0221577
0.0151817
0.0107348
0.00715799
0.0165381
0.00974758
0.00905066
0.00866297
0.00863182
0.00874394
0.00903435
0.0088679
0.00688475
0.166036
0.112899
0.138304
0.158636
0.0665623
0.0873801
0.188699
0.102096
0.0746355
0.113307
0.0951967
0.123521
0.053628
0.102013
0.0169222
0.1009
0.0141902
0.0638093
0.0255172
0.0972194
0.0225366
0.115374
0.0757048
0.0834176
0.0934643
0.071679
0.113769
0.0143984
0.105594
0.045422
0.0787829
0.0847855
0.0158536
0.0797425
0.111396
0.102254
0.106425
0.0924219
0.0717389
0.152565
0.00998329
0.0542062
0.0677227
0.0142342
0.0669925
0.0853273
0.0504848
0.120864
0.0154573
0.133828
0.0679953
0.0986005
0.0132574
0.0824506
0.0574948
0.100461
0.0595796
0.094334
0.0149746
0.0955477
0.0628401
0.0675688
0.0845772
0.0892554
0.0701078
0.0670816
0.075298
0.0694405
0.0417239
0.0558043
0.0490395
0.0716278
0.0726075
0.0306794
0.0348993
0.0364481
0.0626852
0.0763468
0.0482493
0.054655
0.0353428
0.0660495
0.0682896
0.0192679
0.0214368
0.0108805
0.00906331
0.010452
0.0118068
0.0258876
0.0246255
0.0123384
0.0158598
0.0120808
0.069645
0.0830061
0.0537729
0.000913435
0.000903609
0.000914575
0.000962855
0.000909825
0.00088014
0.00328534
0.00364529
0.00549807
0.00290046
0.000130191
0.000998388
0.00138699
0.000814053
0.00254084
0.00236572
0.00717965
0.00245338
0.000566319
0.000683655
0.0392745
0.0579847
0.0544507
0.0446913
0.0278229
0.0358011
0.0225714
0.0100464
0.051122
0.0665878
0.0534559
0.0207967
0.0234082
0.0115184
0.0329868
0.0309206
0.0331715
0.0388327
0.0338177
0.00520441
0.00306398
0.00487253
0.00379186
0.0501891
0.0596401
0.0247854
0.0335228
0.0124164
0.00309975
0.0347135
0.010301
0.00640902
0.03136
0.0517293
0.0319773
0.0211872
0.0302119
0.0222585
0.0305255
0.0549894
0.0511709
0.077979
0.0550724
0.0766352
0.0891597
0.0885537
0.102032
0.096211
0.105587
0.0863049
0.0765582
0.0976562
0.0854937
0.0963972
0.0864384
0.0669064
0.0752047
0.084205
0.158135
0.17998
0.171077
0.242806
0.113961
0.073486
0.148126
0.160836
0.203243
0.120371
0.118107
0.117518
0.117374
0.154651
0.200528
0.122821
0.000961129
0.000974066
0.00102925
0.00114862
0.000998187
0.000979151
0.00166037
0.00096442
0.00109366
0.000757666
0.000973343
0.000948205
0.00101746
0.00104125
0.00110087
0.00110478
0.00107256
0.00101003
0.000998624
0.00103557
0.0917283
0.105154
0.0769827
0.100303
0.0737416
0.0786259
0.0438136
0.0620014
0.0939769
0.080757
0.010801
0.101376
0.0521566
0.0526048
0.081941
0.0762453
0.0107563
0.0837276
0.0133676
0.0741694
0.00071587
0.00118826
0.00132956
0.000983319
0.000885755
0.000944445
0.00101642
0.000990201
0.00104071
0.000994275
0.000939864
0.00106826
0.00105233
0.000770894
0.00106378
0.000945422
0.00141972
0.155123
0.0899025
0.141511
0.0127274
0.0914333
0.107301
0.0944154
0.111807
0.0191327
0.10871
0.247267
0.0741174
0.000989399
0.000905542
0.000593974
0.000283626
0.000873197
0.000719608
0.000704297
0.000490741
0.000354433
0.000899775
0.000702757
0.000367834
0.00444249
1.95716e-05
0.00169812
8.09543e-05
0.00241766
0.00811725
7.20769e-05
0.00502908
0.00712714
0.0284281
0.0261155
0.00122943
0.00202609
0.0394575
0.0300748
0.0418108
0.0017729
0.00388276
0.0062883
0.0013993
0.00314022
0.00372163
0.00143766
0.0122013
0.00369507
0.00544567
0.00178994
0.0106601
0.0283273
0.00901431
0.0134434
0.0187001
0.057024
0.00329903
0.00276699
0.0434086
0.0679657
0.00703251
0.0058374
0.0190894
0.0409706
0.0127756
0.024066
0.0295155
0.0312164
0.0174395
0.0137294
0.0330377
0.02777
0.0241201
0.0129375
0.00361363
0.0222841
0.0109142
0.0101802
0.00342882
0.00427323
0.00665267
0.00834877
0.0148191
0.000577069
0.0012061
0.000461971
0.000808728
0.0195944
0.0184961
0.00266851
0.000319452
0.00142049
0.0104369
0.0202116
0.0203957
0.0015773
0.000487567
0.000707751
0.0188167
0.0108239
0.0630865
0.0515345
0.0174058
0.0572911
0.045157
0.0333079
0.016329
0.00277147
0.000166035
0.00208274
0.0073629
0.000730359
0.000960182
0.000971029
0.000441304
0.00148572
0.000961245
0.00093375
0.000978656
0.000975783
0.000569554
0.00055714
0.000890835
0.000911902
0.0010363
0.000778434
0.000743357
0.00103881
0.000832061
0.0158391
0.0126399
0.0119813
0.0217856
0.013236
0.0410144
0.0539109
0.018312
0.022247
0.0288119
0.0262808
0.0345921
0.026519
0.0231649
0.107852
0.0929021
0.0284592
0.154759
0.0603231
0.0571268
0.040714
0.0145241
0.0188745
0.0555359
0.0529353
0.0292517
0.0287095
0.0294566
0.0170087
0.0210969
0.0313756
0.0205766
0.0182686
0.0254115
0.0156514
0.0101088
0.0263138
0.0369072
0.0266624
0.0261797
0.0948363
0.108464
0.118115
0.108288
0.0936492
0.110086
0.114329
0.116737
0.0933319
0.113751
0.10793
0.109661
0.11701
0.126981
0.122536
0.122053
0.089939
0.0846737
0.0863462
0.0911572
0.103129
0.0969375
0.105174
0.129092
0.0933952
0.130143
0.0142577
0.0898954
0.0877591
0.0912466
0.101727
0.105555
0.0896298
0.110263
0.0195092
0.0869532
0.0993467
0.0210815
0.102545
0.0203931
0.095818
0.0927602
0.0853157
0.0788323
0.0180703
0.102436
0.0921086
0.0648625
0.0773027
0.105883
0.0694685
0.0964086
0.0933421
0.0658722
0.0644264
0.0582851
0.0992372
0.176986
0.159167
0.169434
0.120811
0.13414
0.137943
0.106208
0.144875
0.161923
0.127268
0.152634
0.137013
0.111126
0.126525
0.0238759
0.120935
0.110182
0.111062
0.0206327
0.099025
0.122839
0.111296
0.114221
0.0472134
0.0521714
0.0565275
0.0872907
0.0782605
0.131686
0.0939687
0.0862352
0.0508094
0.0699648
0.0990606
0.0704287
0.010693
0.00991971
0.0680094
0.0719541
0.0736139
0.0136528
0.10692
0.0783104
0.08663
0.121031
0.10806
0.011405
0.0757231
0.0716082
0.063368
0.0983053
0.0963802
0.0726209
0.0139866
0.0902774
0.098014
0.0899141
0.0634748
0.107022
0.125283
0.0646231
0.0636514
0.10396
0.0914973
0.0807644
0.0113351
0.118445
0.0833045
0.068606
0.0680216
0.0851795
0.0716511
0.115646
0.122396
0.122347
0.119278
0.110817
0.11843
0.116706
0.107203
0.114471
0.112474
0.0938201
0.0935715
0.120135
0.0964481
0.0944277
0.106517
0.109682
0.0387377
0.0435299
0.0443693
0.0443331
0.0441088
0.0465232
0.0430388
0.0508356
0.0382261
0.0383115
0.0399306
0.0471785
0.0405654
0.0455403
0.0434674
0.0444646
0.042325
0.0410329
0.0421845
0.0490548
0.0453137
0.0431956
0.0340944
0.0283937
0.0261674
0.0265207
0.0204362
0.00905245
0.00656879
0.0205707
0.0202668
0.00542669
0.0031618
0.0136428
0.0128472
0.00201774
0.0119411
0.00678708
0.0096988
0.0104277
0.222226
0.171904
0.136869
0.143474
0.143089
0.144984
0.268344
0.17559
0.157769
0.240729
0.168561
0.153522
0.185499
0.185139
0.238038
0.190904
0.254636
0.0312205
0.00614287
0.0345533
0.0883219
0.0859744
0.00788345
0.0240176
0.0215864
0.00349601
0.0566651
0.0789092
0.0958903
0.0492365
0.0475056
0.0895049
0.104217
0.0352559
0.0353489
0.0380816
0.0375715
0.0459079
0.0466897
0.0376077
0.0961783
0.100422
0.0438511
0.0410828
0.0570653
0.0858562
0.094071
0.0858638
0.0972857
0.0878482
0.0970914
0.0814828
0.014918
0.0973969
0.0137306
0.0732665
0.0857535
0.0691535
0.0209899
0.0187858
0.021637
0.0182431
0.00936663
0.0191417
0.0161497
0.0147724
0.0177201
0.0200508
0.0178291
0.0170555
0.0146823
0.0170711
0.0424528
0.0530844
0.0355091
0.0384524
0.0581221
0.0352284
0.0380345
0.0620612
0.0791935
0.0711498
0.0880711
0.0483671
0.0518829
0.0643082
0.0302107
0.0691183
0.0849999
0.0277659
0.0371108
0.213562
0.0553013
0.22405
0.275091
0.0723106
0.111206
0.135374
0.248319
0.243501
0.179522
0.175028
0.271188
0.277971
0.214369
0.0014444
0.00169426
0.000972138
0.00119026
0.00128338
0.00111235
0.00119077
0.00113285
0.000940389
0.000894247
0.0931934
0.011933
0.0870136
0.0146825
0.0547317
0.0499102
0.0411781
0.0610595
0.0743442
0.0744076
0.0865809
0.0932898
0.0877532
0.0474929
0.0502402
0.0244185
0.074513
0.0864819
0.0467402
0.0498245
0.0432659
0.046452
0.140111
0.0757185
0.113525
0.0888385
0.123696
0.0261976
0.0806195
0.204937
0.176951
0.0275116
0.0842745
0.0287825
0.0767272
0.203766
0.206454
0.0735916
0.0598192
0.175696
0.000870858
0.000870759
0.0008735
0.000873565
0.000872952
0.000869197
0.000873615
0.000871134
0.000866723
0.000865654
0.000876311
0.000871028
0.000867921
0.000869315
0.000878289
0.00088719
0.000872629
0.000877666
0.00086724
0.121315
0.112684
0.0811333
0.101233
0.0626669
0.0566689
0.0887951
0.100364
0.0620617
0.104244
0.0808835
0.110352
0.108485
0.0637444
0.111514
0.098148
0.110561
0.044784
0.000947847
0.000964804
0.00097161
0.000934884
0.000953573
0.00097119
0.000977143
0.00097773
0.000965952
0.00102871
0.000994207
0.000981969
0.00099496
0.00100981
0.00102787
0.00102215
0.000857594
0.000843505
0.000842337
0.000865743
0.000880096
0.000858883
0.000851298
0.000856618
0.000826269
0.000825844
0.000873957
0.000832764
0.000873874
0.000844464
0.00087991
0.000853149
0.000853853
0.000853044
0.00087674
0.00086049
0.00085235
0.000889166
0.000869401
0.000865904
0.00084504
0.000897947
0.000899768
0.000864268
0.000875281
0.000972738
0.000852353
0.000923868
0.000892868
0.000385383
0.000860846
0.000896232
0.000870891
0.000898574
0.00091079
0.000753592
0.000872108
0.000858643
0.000844783
0.000699556
0.000886697
0.000890303
0.00088496
0.000879714
0.000879339
0.000880758
0.000880889
0.000900656
0.000891795
0.000887103
0.000890031
0.00089147
0.000883771
0.000872906
0.000886838
0.000884792
0.000899651
0.000889107
0.000895864
0.000893588
0.0846095
0.0845623
0.0807816
0.0544467
0.0684089
0.0614648
0.0804875
0.0708822
0.0725401
0.0468358
0.0479502
0.0706307
0.0654396
0.0707345
0.0768856
0.105983
0.0788046
0.0896523
0.0876284
0.0925889
0.104787
0.0891242
0.0932286
0.0882924
0.108055
0.0966952
0.104431
0.0898896
0.0492523
0.0495543
0.0490942
0.0826961
0.0948826
0.00090879
0.000909261
0.000896495
0.000946959
0.000913383
0.000909226
0.00086314
0.000886753
0.000887472
0.000879227
0.00088264
0.000896064
0.000897075
0.000893052
0.000877173
0.0802073
0.0558924
0.0497051
0.0470893
0.0890105
0.0456647
0.068775
0.0865786
0.101118
0.000882212
0.000889074
0.000882956
0.00088189
0.000893499
0.000881952
0.000880992
0.000887084
0.00088638
0.000874057
0.000870586
0.000854013
0.000868403
0.000886266
0.000881263
0.000868571
0.000844845
0.000854094
0.000898075
0.000886427
0.000885019
0.000833554
0.000725329
0.00104106
0.000667172
0.000755824
0.00104137
0.00190595
0.000861073
0.000670362
0.000508878
0.00071164
0.000560144
0.000760339
0.000827616
0.000415953
0.000629468
0.000807836
0.000815201
0.00174359
0.000862437
0.0019133
0.000822118
0.000839922
0.000785102
0.000899135
0.000957384
0.000867626
0.000909564
0.000942271
0.000879814
0.000838775
0.00080162
0.000805499
0.000801157
0.000902661
0.000890844
0.000928014
0.000916615
0.000886328
0.000884126
0.000890872
0.000865721
0.000939516
0.000808751
0.000897747
0.00093349
0.000802184
0.00821582
0.014116
0.012183
0.00997342
0.0049661
0.0111444
1.75331e-05
0.00166542
0.0118978
0.00550137
0.014936
0.00872871
0.00756409
0.00102012
0.00198647
0.00613086
0.00211976
0.00282885
0.000844019
0.00189052
0.00214816
0.00268204
0.00188699
0.00636714
0.00206957
0.00313063
0.00192047
0.00188859
0.00178229
0.00183054
0.00247156
0.0018329
0.00201167
0.00521866
0.00228479
0.00329361
0.00417298
0.0024593
0.00326529
0.00296044
0.00286763
0.00242637
0.0026069
0.00244388
0.000887468
0.000888188
0.00096721
0.000880778
0.000886036
0.00105103
0.000903223
0.000894181
0.00087651
0.000896236
0.00106606
0.000891839
0.000854892
0.000848299
0.000859794
0.000857278
0.000816798
0.000855537
0.00086194
0.00086195
0.000850288
0.000821733
0.000868292
0.000835354
0.000859439
0.000858084
0.0716063
0.0543402
0.0630362
0.072102
0.0625765
0.0531606
0.0600376
0.0636956
0.0654349
0.0793339
0.0850906
0.0767765
0.0785306
0.00673642
0.00442198
0.00519249
0.00458282
0.00419539
0.00670042
0.00267832
0.00788455
0.00439747
0.0039163
0.00425534
0.00335901
0.00228177
0.00223842
0.0041179
0.00763576
0.00480874
0.00766523
0.0075655
0.0120825
0.00418091
0.00296661
0.0154214
0.0131949
0.0294547
0.00928752
0.0150076
0.00920337
0.00503424
0.0128447
0.00626616
0.00647155
0.00849565
0.00543166
0.00809956
0.0056711
0.0117821
0.00644714
0.00409148
0.00446779
0.0106053
0.00559603
0.00470743
0.00576553
0.00695307
0.193262
0.194209
0.187113
0.177887
0.211787
0.210445
0.230604
0.230409
0.228679
0.243801
0.251709
0.000838074
0.00082872
0.000836977
0.00083888
0.00083352
0.000836899
0.000836136
0.000832953
0.000833337
0.000832166
0.000836591
0.000838591
0.000833763
0.000411649
0.00153157
0.000230562
0.00527078
0.000321815
0.00113835
0.000666602
0.00081911
0.00106226
0.00136782
0.000972786
0.00108925
0.00104812
0.00100637
0.0018137
0.000919732
0.00108001
0.00101722
0.00158161
0.000919234
0.000991525
0.000955439
0.000732597
0.000775037
0.000652854
0.00044652
0.000987222
0.000693825
0.000678259
0.000919774
0.000673248
0.000781167
0.000785404
0.000842471
0.00084536
0.000796257
0.000758486
0.00083901
0.000826311
0.00085776
0.000840423
0.000854667
0.000842648
0.000864851
0.000855094
0.000837243
0.000830069
0.000842432
0.000847382
0.000932184
0.000852751
0.000862712
0.000927892
0.000924453
0.000939338
0.000914076
0.000913581
0.000933298
0.000942389
0.0009258
0.000935454
0.000930384
0.00091764
0.000935203
0.000913843
0.000240027
0.00115536
0.00111599
0.000632919
0.000777209
0.000903803
0.000876186
0.000984763
0.000923902
0.00092451
0.000917979
0.000768129
0.000188534
0.00090356
0.00095265
0.000747484
0.000923009
0.000786293
0.00151785
0.00251234
0.000720028
0.00416943
0.00591173
0.00416569
0.00413446
0.00757539
0.00665876
0.00524641
0.00939152
0.0102708
0.00794783
0.00975026
0.0119143
0.0076151
0.00805366
0.00924585
0.010477
0.00766439
0.00996835
0.0623998
0.171122
0.0496896
0.0756272
0.0602594
0.130153
0.0219912
0.0253933
0.130189
0.022311
0.0837302
0.18508
0.0991177
0.0689631
0.0933196
0.0639333
0.0156742
0.0616321
0.0893337
0.0282518
0.120575
0.0869509
0.0376754
0.0164359
0.0578952
0.105549
0.108914
0.00480519
0.0118861
0.0121354
0.00142694
0.0047106
0.0703192
0.0471652
0.0600604
0.00875687
0.105848
0.0181633
0.0967741
0.167935
0.125844
0.0815012
0.0875568
0.173171
0.0780847
0.123276
0.0428483
0.216991
0.162423
0.102359
0.132818
0.193538
0.178674
0.162673
0.213701
0.18243
0.162444
0.126359
0.158216
0.126721
0.126926
0.140227
0.224089
0.199058
0.152043
0.00874994
0.0124359
0.0173198
0.0103513
0.00731022
0.0103155
0.00469515
0.0125037
0.00451337
0.00967727
0.0190454
0.0170767
0.015626
0.0125346
0.0135482
0.0107867
0.0140811
0.00720763
0.0207285
0.0152445
0.0688213
0.0757534
0.0497955
0.0456841
0.0493987
0.0371961
0.0442759
0.0626439
0.0881816
0.0794993
0.0234257
0.064178
0.0886619
0.0643522
0.00949462
0.000780295
0.00551545
0.002382
0.000887204
0.000428285
0.00715552
0.00126395
0.00522907
0.00651426
0.00751639
0.00632293
0.00111248
7.73096e-05
0.000895565
0.00140609
0.00309858
0.00310086
0.0893805
0.115008
0.107838
0.119261
0.140831
0.101576
0.168884
0.0225701
0.168924
0.0730143
0.0438602
0.0144409
0.0413433
0.0547957
0.103127
0.0279326
0.113196
0.0799269
0.0344674
0.0437287
0.0101226
0.0384304
0.00076048
0.000827426
0.000499052
0.000531696
0.000790785
0.000791229
0.000789994
0.000736846
0.00077693
0.000859204
0.000752446
0.000776685
0.000723126
0.000712134
0.000720822
0.000652997
0.000731502
0.00079064
0.000787239
0.000734326
0.0013988
0.00437939
0.0112363
0.000921218
0.000271209
0.000625377
0.0118994
0.00013751
0.00339125
0.000807712
0.000822678
0.00475732
0.000757072
0.000812176
0.00518866
0.243409
0.382041
0.291704
0.397072
0.322695
0.407587
0.399041
0.20103
0.00378549
0.00247442
0.00728311
0.00617954
0.00647475
0.00179181
0.00321011
0.00172712
0.00640907
0.00493075
0.00182615
0.00464245
0.0227829
0.0321802
0.0987223
0.0674315
0.0259266
0.0397575
0.0959081
0.0969373
0.0918538
0.0924386
0.0144603
0.0905496
0.094096
0.0188761
0.0728132
0.0452803
0.0463295
0.0583754
0.00078604
0.00170165
0.0019977
0.00244086
0.002224
0.000747849
0.000999179
0.00181149
0.00165089
0.00209532
0.00299873
0.00139543
0.00123588
0.00226085
0.00121023
0.00263271
0.00311097
0.00154865
0.0231051
0.0234166
0.0326834
0.0330002
0.0302748
0.031055
0.018269
0.0223732
0.0258848
0.035715
0.0340972
0.0237477
0.0411398
0.0241355
0.0342658
0.0348417
0.0315803
0.0219075
0.0213772
0.0320745
0.0350531
0.0197917
0.000919411
0.000912782
0.000925071
0.000937021
0.000917338
0.000929101
0.000922116
0.000910901
0.000919336
0.0009271
0.00093308
0.000926781
0.000926962
0.000921261
0.000925938
0.000919291
0.511179
0.523754
0.439516
0.522541
0.392609
0.525517
0.307893
0.28612
0.209943
0.200896
0.20447
0.212174
0.42794
0.232691
0.25291
0.206243
0.30656
0.317164
0.027776
0.0490667
0.0443846
0.0264308
0.0159231
0.00951163
0.0246804
0.0285587
0.0365395
0.0305071
0.0173276
0.0139823
0.0124077
0.0145609
0.0241636
0.017948
0.00217044
0.000723242
0.000704201
0.000712701
0.00109905
0.000760024
0.00077123
0.000767652
0.000541545
0.000513866
0.00300631
0.00226673
0.00409903
0.000118156
0.000684378
0.000554902
0.000634508
0.000698793
0.00171298
0.00336681
0.0518996
0.0521594
0.0478236
0.0312961
0.00985222
0.029653
0.00192378
0.0251461
0.0320621
0.0426203
0.0111399
0.00936342
0.0202954
0.0231361
0.0128182
0.0142612
0.0103976
0.00441129
0.00518639
0.00987417
0.0167081
0.0180367
0.00581344
0.0183008
0.0069011
0.00663183
0.00523425
0.00935378
0.067818
0.0566024
0.0412152
0.0624544
0.0745814
0.0294869
0.0220341
0.0537455
0.0621833
0.0604112
0.0236784
0.018415
0.0400719
0.0422686
0.0356695
0.026467
0.0346471
0.0132363
0.0118458
0.00177014
0.0128644
0.0122733
0.0141466
0.0135537
0.00991536
0.0113728
0.00589979
0.00509475
0.00691814
0.00454195
0.0154281