/*--------------------------------*- C++ -*----------------------------------*\
  =========                 |
  \\      /  F ield         | OpenFOAM: The Open Source CFD Toolbox
   \\    /   O peration     | Website:  https://openfoam.org
    \\  /    A nd           | Version:  10
     \\/     M anipulation  |
\*---------------------------------------------------------------------------*/
FoamFile
{
    format      ascii;
    class       volScalarField;
    location    "12";
    object      omega;
}
// * * * * * * * * * * * * * * * * * * * * * * * * * * * * * * * * * * * * * //

dimensions      [0 0 -1 0 0 0 0];

internalField   nonuniform List<scalar> 
75457
(
32.6673
33.3285
24.9891
19.8433
23.852
28.9391
27.4863
34.5547
16.8367
16.7261
15.8352
18.8916
18.666
16.941
2.39166
2.37944
2.03208
2.3846
2.31996
2.04928
2.20627
2.24272
2.40184
2.37063
2.28996
2.55581
2.58479
2.26432
2.34458
2.44797
2.15285
2.47082
2.51843
2.03403
1.98581
2.09413
2.00807
2.60008
2.51785
2.0182
2.06307
1.99998
2.02574
2.60507
2.82981
2.34433
2.26209
2.57398
6.14625
3.46922
4.92783
5.60953
13.9279
4.7083
3.77475
3.97846
7.88978
8.84702
7.98786
15.4291
12.1237
6.60423
8.72827
7.18461
7.06556
7.99554
6.6681
8.2884
8.48957
13.9333
8.19778
14.5486
7.75898
7.73835
8.06401
7.1447
7.59263
13.127
8.54371
6.07097
14.879
9.61802
10.5651
6.367
5.82714
5.35191
6.07329
6.35063
11.9878
13.9812
7.18326
5.62391
12.0173
6.9952
5.68644
3.38204
3.68071
3.91391
24.0113
6.84579
8.40402
11.0224
22.1285
20.0087
39.601
41.121
20.8326
18.6946
20.4573
7.25809
5.61984
15.6936
15.6783
13.4192
5.31698
9.84794
22.147
9.21641
8.60858
24.2328
6.03694
6.75612
6.69988
6.41425
7.60872
7.58211
15.3634
6.455
11.4432
7.20032
6.85758
6.92368
6.55904
6.07859
3.33288
15.3462
7.04438
5.46072
5.7218
24.7019
4.4096
5.39647
6.65264
4.33979
4.56125
5.97763
7.10613
8.24703
17.8868
5.08543
31.8494
9.311
5.11936
4.1358
9.01898
13.6629
4.13327
26.7667
5.30317
7.08055
27.3906
5.36016
8.1918
6.04621
6.26151
6.53355
6.22545
6.40075
5.79386
5.79248
6.07662
6.29547
6.02287
6.14474
5.96041
5.82136
8.69009
7.92674
7.59075
11.6349
4.70497
22.3351
3.86838
12.1206
28.1622
5.16381
3.80923
9.60538
17.8745
39.4822
7.88471
7.89195
8.53243
13.0037
6.34006
24.6602
3.99344
4.58119
4.04727
4.3861
3.88769
7.43526
8.63898
12.8511
6.20409
7.15175
12.855
11.7206
12.5999
12.7228
11.146
11.428
23.6192
26.3558
9.56955
11.0113
25.2393
11.0415
27.6208
25.7578
26.4196
8.53445
12.2349
23.3518
10.6713
11.4294
27.7929
13.1751
7.87455
20.0347
5.04665
4.98079
19.7516
8.3503
9.55585
7.22186
9.31603
4.49657
4.789
5.03227
5.29193
9.05765
21.5686
7.17241
16.5434
10.1493
6.96536
7.32816
10.9207
24.7148
10.4875
21.8469
9.75911
19.5866
7.91481
16.5373
6.2755
4.51904
5.33913
3.25251
3.69402
4.07442
4.55878
6.06446
10.225
18.4634
12.439
30.8589
17.6105
20.4068
27.2564
17.381
6.09632
6.46084
10.3197
6.27248
10.671
11.4915
17.4755
10.2248
9.51107
16.2388
9.77752
15.372
7.44646
14.7405
6.80932
4.18964
4.17811
5.46613
5.0524
5.46612
4.95042
20.9466
15.5959
24.1944
15.9537
8.44449
8.51938
22.5735
8.23297
8.5245
21.7116
3.22406
3.27917
1.64427
21.7116
2.56069
2.45414
21.7116
1.55867
2.98368
4.50776
2.72583
10.4688
12.0429
14.1753
11.0126
12.0551
22.387
10.7084
6.93724
8.79253
13.9031
22.387
4.53886
4.61818
5.16148
8.04805
12.9132
10.8941
9.63029
11.2311
25.8596
5.68605
5.84555
8.71909
7.96218
31.2009
9.92274
8.37193
29.6708
6.27182
5.63694
18.5105
6.14128
10.9833
7.39298
18.5105
5.89873
5.77515
8.30799
6.4598
4.66708
9.50538
8.11429
10.0089
28.3588
8.24903
5.47762
15.8013
22.7452
16.2808
22.1545
4.30626
4.04065
5.26996
4.9515
7.31282
6.31276
10.9351
6.12102
6.70869
8.59589
23.0929
12.5417
11.3644
7.54079
18.6511
6.79721
8.85683
8.12201
18.6624
15.9208
18.1454
4.12842
8.63197
8.75175
4.88575
4.30968
8.27973
4.522
4.5724
4.42165
4.4119
4.58681
4.60904
4.51073
4.56938
4.60041
4.6389
4.52281
4.43178
4.5192
4.48634
4.44976
4.55948
4.44368
4.41665
4.36239
4.36088
4.44061
4.37729
4.45653
4.38897
4.494
4.47665
4.36202
4.42562
4.40985
4.46082
4.44895
4.25832
4.32227
4.33783
4.3737
4.31477
4.35083
4.38659
4.43566
4.26238
4.3054
4.26198
4.25667
4.3239
4.37076
4.33793
4.42005
4.34451
4.36888
4.34017
4.37281
4.32942
4.35995
3.72814
2.84683
2.86218
2.85434
2.84573
3.53554
2.87074
2.85232
2.73728
3.80723
2.69455
2.78387
2.78771
2.83137
2.65605
3.41393
28.8991
16.9399
16.3927
19.9146
13.2328
13.3833
12.9045
15.2674
13.4807
13.8617
29.1073
31.4726
26.9966
18.5517
14.3446
11.6419
3.5709
3.51336
3.77354
3.91307
3.71038
3.62899
3.55922
3.51223
3.60086
3.63113
3.66189
3.85351
3.82612
3.603
4.68719
3.72773
3.64697
3.65349
4.55651
4.61315
4.57918
4.50863
4.47833
4.5159
4.52825
4.5442
4.54283
4.52527
4.55698
4.62773
4.54491
4.58482
4.60713
4.62448
5.83183
5.59707
5.91708
5.59348
5.36324
6.01476
6.36181
6.037
5.8642
6.03729
5.88023
5.75862
6.01476
5.73983
5.8122
6.24717
6.34091
4.71307
4.86806
4.67402
4.70497
4.62737
4.59539
4.68269
4.80698
4.60573
4.50281
4.72466
4.55889
4.49627
4.50901
4.57712
4.4449
4.62168
4.45333
3.90512
4.29211
5.01122
3.61834
4.53892
4.10174
4.52533
3.81105
3.63613
4.09909
5.12904
4.85418
4.08036
4.39881
4.15711
5.13366
5.29425
2.18413
2.14646
2.18237
2.39355
2.06245
2.47878
2.19099
2.1556
2.16218
2.58267
2.25915
2.15052
2.18992
2.11524
2.64079
2.60249
2.86749
2.61553
2.94783
2.93025
2.93119
2.68505
2.6187
2.98037
2.99326
2.94362
2.65601
2.5334
2.5281
2.81773
2.68031
2.79618
4.25452
4.27175
4.29519
4.49912
4.5491
4.29134
4.29519
4.49718
4.42594
4.47156
4.27095
4.53352
3.99867
3.45281
4.31606
3.27775
4.23629
3.88447
4.16822
4.13513
4.14574
2.96762
2.85237
2.96043
3.2776
3.23243
2.9853
3.2608
1.98531
2.57457
1.92748
2.39805
3.59435
3.26413
4.70949
3.07008
2.97458
2.44873
2.24326
2.05252
3.96057
2.21566
2.35335
2.62071
3.64729
3.62694
3.65062
3.68484
3.80626
3.70091
3.64841
3.60226
3.5882
3.67749
3.70768
3.67997
3.69573
3.76359
3.76808
3.67869
3.64289
3.71687
3.5907
2.49431
2.46721
2.20237
2.79285
2.42777
2.71357
2.60184
2.2898
2.47276
2.16547
2.67107
2.54836
2.43598
2.44773
2.89048
2.68027
2.77971
2.86003
2.69751
2.77868
2.59396
2.51096
2.58078
2.4157
2.46064
2.69413
2.56081
2.49842
2.54439
2.33384
2.39594
2.52826
5.02409
6.23997
6.3742
3.94645
3.95074
5.41012
4.70739
3.35238
3.66984
6.91415
5.56527
5.64188
5.48003
6.1786
6.30525
6.35708
6.94429
6.35403
6.8592
5.51746
5.60229
6.6503
8.42821
8.26693
6.95424
7.88585
7.83908
6.90115
5.94497
6.96789
6.90328
6.66878
2.73407
2.77165
3.00577
2.86559
2.86873
2.66515
2.80086
2.82296
2.80511
3.49058
3.88156
4.35542
2.61642
3.81125
5.16996
3.55517
4.41286
2.08502
3.01327
4.47277
6.06927
3.08019
3.40566
8.79601
6.44282
3.73477
7.17704
4.1412
4.54999
4.11739
4.33531
5.15902
5.76031
6.45795
7.38014
7.596
7.67155
6.11611
7.91684
6.91941
7.71286
2.07888
2.1348
1.86615
1.89606
1.95358
1.90559
2.02788
2.05313
2.48268
1.99581
2.17292
2.23941
1.85876
1.93648
2.30731
1.92644
2.16527
2.13295
2.05123
2.45326
2.53524
2.00599
2.58729
2.31563
2.76553
2.34104
2.31542
2.97383
2.80381
2.20841
2.55541
2.80766
2.62549
2.59091
2.90812
2.22793
2.39755
3.11343
2.66192
2.30606
2.07642
2.10401
2.72287
3.48182
2.17813
2.26148
2.86648
3.23377
2.19647
2.1707
2.48239
2.21512
2.2291
2.68691
2.76441
3.18045
2.2761
2.24247
2.42221
3.22006
2.21427
2.19736
2.45343
2.13872
4.08789
5.44226
2.08805
2.24106
2.49115
2.7878
2.22142
2.34368
2.76219
3.48539
4.13789
3.71371
2.35311
2.28326
2.16836
2.71647
2.31938
2.68721
2.67169
2.48539
2.53464
2.53043
2.43529
2.35804
2.46941
2.46848
2.54511
2.47443
2.35176
2.56731
2.63782
4.44453
4.73858
4.84246
4.53221
4.68593
4.73775
4.84627
4.60775
4.69747
4.80987
3.02129
2.67173
3.03264
3.39854
2.52704
2.50454
3.34726
4.07622
2.59319
3.31734
3.17644
3.18734
3.57756
2.58206
3.46228
3.19114
2.51353
5.75101
6.06962
5.91168
6.30383
5.99718
5.69159
6.21373
5.91156
5.75232
5.72148
5.86065
5.73755
6.02606
5.72529
6.10888
5.60488
5.707
5.50944
5.67009
5.54746
4.76839
4.83367
4.74912
4.77788
5.02334
5.1538
5.60165
4.91854
4.9229
4.79634
5.47978
5.5321
4.7568
4.86481
5.09387
5.81896
9.63165
8.22664
7.34395
7.93366
11.9239
9.49064
12.0841
11.7885
9.79342
9.50876
11.904
10.7706
10.4571
2.93693
3.15473
2.96549
2.78964
2.70203
2.7517
3.09067
2.97449
2.78179
2.8196
2.52917
2.838
3.85393
4.25375
3.98911
3.89896
4.18797
4.10063
3.7674
3.73659
3.70329
3.77303
3.79929
3.76922
3.85473
3.82733
3.92039
3.85254
4.02575
3.8564
3.85068
3.99041
3.97463
3.75504
3.75138
3.97935
2.96346
3.43734
3.79815
3.50918
2.78416
2.78987
3.38451
2.63698
2.99059
2.94543
2.7253
2.70723
2.95963
2.76617
5.42413
5.77994
5.93513
5.56353
5.63265
5.76663
5.38241
5.00778
5.50607
5.45672
5.55504
5.33396
6.01719
5.66322
5.96601
5.90699
4.4948
4.91548
4.63181
4.40345
4.39488
4.48086
4.41555
4.38564
4.41401
4.50658
4.58732
4.48047
4.56036
4.56849
4.80329
4.64368
13.669
11.9222
12.801
12.1579
14.416
11.6258
5.77816
6.34758
5.9332
6.32797
6.11033
6.84636
8.79073
10.7903
11.1435
8.43103
10.319
10.4536
6.78372
10.0052
6.67515
7.631
7.34508
7.07477
6.83751
7.15417
7.73203
7.37612
6.90046
7.31366
7.38398
7.05749
7.49273
6.96524
7.13335
5.00504
5.32632
5.30377
5.33509
5.94768
6.31465
7.18684
6.07707
7.51989
7.95168
7.50735
6.70923
8.51478
9.02088
3.7314
4.13022
3.62429
3.71663
3.59347
3.80409
3.42182
3.23509
3.9504
3.47486
3.61167
3.22758
3.38576
3.21779
3.24305
3.1938
2.38383
2.42795
2.32352
2.34982
3.59056
3.67779
2.18866
2.86394
2.88998
2.19237
3.49035
3.28833
4.09888
3.22978
3.23796
3.75109
3.64235
4.36596
4.49327
2.66084
3.31266
3.00098
2.85643
2.75022
3.83528
3.12856
3.34922
3.59012
3.40764
2.59193
2.62916
2.89038
2.6684
3.55929
3.3323
2.77301
3.10834
2.87688
2.9873
2.62929
2.74235
3.10044
2.79981
2.77237
8.25877
7.18793
7.20107
8.1268
8.51359
7.54552
7.38083
7.57526
7.54218
7.46967
7.61268
7.44521
8.2175
7.98569
8.07348
8.32675
8.0398
7.83629
7.39881
7.85727
3.11602
3.07716
3.04049
3.01016
3.04364
3.20035
2.96097
3.04403
3.1799
3.05279
3.02084
3.01479
4.78166
7.0551
24.3767
5.39931
18.6791
6.37786
11.4053
20.7904
22.3797
5.13411
11.5456
14.308
23.9779
6.64938
11.3968
3.96082
8.35767
5.26954
4.63626
8.06337
9.48645
7.4647
4.58161
3.8832
3.80995
12.2931
14.3212
13.5849
15.1492
3.7687
3.92476
3.77795
3.62558
3.74917
5.56749
6.21553
5.18158
1.98271
2.28632
1.83658
1.984
1.8522
1.79715
1.76705
1.84754
1.80543
1.81391
1.92004
1.84229
1.83243
1.82405
1.8272
1.81926
5.59078
5.33854
6.15289
5.80926
10.6493
8.77196
4.98976
6.65703
8.24393
7.58128
8.39042
7.44494
3.81294
11.6555
13.6414
9.7086
12.4898
4.55891
2.79766
9.64323
2.87091
8.45411
16.6528
4.74729
8.11023
4.06377
9.89266
18.8455
10.0525
2.70606
4.38398
5.15749
19.8039
4.48234
6.57362
8.00358
12.6577
4.1505
8.05105
3.71609
21.1896
5.85454
7.10156
25.3515
5.36802
8.46979
7.77644
7.74119
16.2654
5.64887
6.61124
11.2144
15.2146
4.50193
3.98791
8.69559
3.87103
8.85306
16.1691
8.69856
3.50701
3.91342
15.0197
9.38982
3.86752
3.53085
4.36262
3.64664
2.60906
3.06766
2.77157
3.72647
3.86556
2.34031
2.47132
2.49621
3.44834
4.26409
2.84486
3.07785
2.46947
3.39193
3.53634
4.34479
3.67814
4.09494
4.13122
3.91261
3.95008
4.6794
2.78993
3.62904
4.2584
3.97761
5.95833
8.51672
5.26459
11.894
11.5772
10.9847
10.7642
12.2763
10.6204
10.189
10.7769
11.1098
11.053
12.3951
12.9158
10.2057
10.4344
10.8139
11.2205
10.9097
12.3859
11.6156
10.8031
8.14047
10.1604
6.92944
6.78014
10.9222
10.9512
18.2225
15.8429
6.61291
6.9987
8.06428
10.3648
11.3932
15.7067
8.12888
10.1527
6.51504
6.59444
7.35826
5.21597
4.49328
4.40546
4.06836
12.1389
15.9355
10.3882
13.1538
5.00426
4.48001
11.8859
7.54938
4.79797
8.054
14.4514
8.75282
6.6687
11.7568
6.74966
11.9054
2.30384
2.27898
2.71322
2.34538
2.67276
9.07969
11.5805
5.0662
5.47899
3.7758
3.47609
2.6931
3.51144
3.28414
6.39224
3.14997
2.60015
2.34127
3.21702
7.27459
6.2512
6.52267
6.62563
7.41756
10.7236
6.88751
6.46038
6.10236
7.43169
8.51017
12.6319
11.2397
6.9654
7.31524
9.44606
24.4815
22.835
24.0492
26.0454
30.4433
27.481
30.3362
43.4264
40.9922
36.5484
32.305
31.6983
44.7039
33.7532
32.5197
31.2405
38.902
38.7573
39.4794
29.3603
7.95052
9.57623
7.819
10.0999
6.2594
6.6727
4.25034
5.27007
11.9304
8.1304
16.9861
9.2847
4.66644
4.44399
14.0514
11.0374
16.941
8.78274
19.0005
6.52779
30.6399
37.5219
41.4723
55.8866
42.0922
29.8298
24.6174
39.509
47.1111
41.9993
45.3371
35.6074
62.5729
41.0425
79.012
80.9933
55.2753
3.25957
11.9572
6.91866
31.8182
6.03929
5.80107
8.44383
7.66583
39.3033
7.49276
2.00482
21.18
12.1227
11.5938
15.2064
14.5431
13.1314
11.6023
10.9358
10.6825
14.0157
15.1391
12.595
12.9307
12.8398
14.1861
11.5745
12.8931
12.8147
12.0092
15.4355
11.2158
11.3258
5.80085
5.69004
5.48631
5.62408
6.31612
5.8653
6.30325
5.73525
5.51135
5.63087
5.58646
5.46875
5.4099
5.36232
5.82301
5.67896
5.59458
5.49549
4.82421
5.26035
4.81203
4.98506
5.09198
6.31118
4.77622
4.9556
6.08097
6.95616
5.13505
4.84975
5.07705
5.91248
5.16021
6.01283
6.43301
6.43411
6.07524
5.70804
6.54661
5.57223
6.33717
6.23317
6.35675
5.61057
6.23874
6.21921
6.25655
3.1431
3.21608
3.17598
3.31251
3.08152
3.03892
3.16337
3.1389
3.48034
3.63081
3.13364
3.14954
3.19477
3.29393
3.49938
3.42763
7.12286
7.17604
7.31217
7.12032
7.08534
8.11418
6.9709
7.06719
8.47816
7.27807
6.59502
6.42258
7.12231
7.85573
7.68857
7.22368
7.25933
21.8374
21.9963
16.7873
18.1162
19.6366
21.9348
25.1975
25.5058
18.6401
19.7753
25.5624
30.1077
24.8678
26.6352
23.7592
25.1519
24.129
7.36398
5.87439
5.43051
7.93784
5.28448
14.1841
20.7071
5.40098
11.6186
11.99
9.20241
10.3158
11.8413
5.90686
3.39611
10.1092
22.5995
4.06392
8.2747
6.79368
5.63614
4.63755
4.46935
6.87408
6.56239
5.2748
5.16502
4.92646
4.81743
4.77861
5.00141
4.65161
4.49359
4.85925
4.59344
4.6394
4.86172
5.26051
4.68584
4.68342
3.86018
3.53913
3.2546
3.50903
4.06937
3.38283
3.31918
3.31208
4.27372
3.29035
3.38653
3.5291
3.81059
3.27616
3.17358
3.11251
5.3811
4.40511
4.79691
5.6784
4.70684
4.24248
8.84504
5.7509
6.13583
6.10864
14.0713
8.08395
4.9462
8.95258
4.27886
7.20852
8.87315
13.7811
16.3145
10.0238
14.5261
16.8459
10.6919
15.3447
11.2387
7.85531
5.83993
4.54994
14.5998
9.73287
11.0807
3.03893
4.35208
11.4233
3.89646
10.3688
9.45964
3.80085
3.50251
3.28489
8.06862
5.5536
5.50823
5.46222
6.68095
5.56878
5.54656
6.504
5.66221
5.6337
6.519
5.63477
5.41512
7.52346
6.74039
10.0865
6.07353
6.98729
8.59256
10.3987
9.04637
7.82457
6.95852
5.55557
4.4285
4.51526
4.69866
8.39263
6.95566
7.26174
6.90257
6.50346
4.19354
6.18013
7.61292
7.68974
18.2272
17.6346
6.37329
6.44816
6.90629
20.6574
8.44046
12.1477
7.47515
3.31794
9.01653
14.757
6.12227
4.81695
4.04521
9.64369
8.41402
14.2575
16.3224
6.68189
9.10712
9.97049
4.14645
6.12969
5.71619
4.41095
4.39416
9.55534
8.66498
10.0622
15.7601
6.94031
10.2915
4.4312
4.12682
7.75732
4.28687
4.30728
4.29364
3.79263
4.33614
3.6866
3.5398
3.5741
4.50095
3.4225
3.29265
3.66854
3.54641
3.20245
3.15559
3.28928
3.20679
3.15909
1.97034
2.00664
2.03088
2.00979
1.9943
2.12864
1.95435
1.94979
1.99066
1.96503
1.94533
2.10576
1.98731
2.06237
1.96508
2.05379
1.97979
1.98964
2.02087
2.33121
2.16432
1.98994
2.48925
2.20149
2.15736
2.13427
1.84948
1.68426
1.62091
1.87638
2.01031
1.60197
1.59952
1.79174
1.8134
1.59697
1.69437
1.67212
1.68243
1.67682
7.53548
7.47089
9.16184
9.90348
8.22981
9.70996
7.90525
6.81431
7.99866
8.23327
7.23581
7.22253
6.87991
6.36037
9.26098
7.51856
8.58764
3.94594
3.46411
3.95722
7.66085
6.33281
3.46692
3.75733
3.74441
3.30386
4.62716
5.15637
7.28923
3.16306
3.08265
5.25659
6.58126
2.60421
2.74963
2.73961
2.73488
3.04214
4.03728
3.00654
9.79515
7.55368
3.45582
3.27034
4.90422
5.66424
8.33747
6.08172
6.33263
7.18462
8.03518
15.2195
21.0143
10.7549
20.1234
4.43383
7.47715
4.21968
1.82029
1.77114
1.82661
1.77712
1.69293
1.83983
1.78549
1.75762
1.92999
2.01474
1.88318
1.83615
1.77524
1.84757
3.24913
3.20008
2.8556
2.82925
4.07953
2.62378
2.81052
3.8365
4.45789
3.8421
4.73115
3.5536
3.14423
3.92422
2.51265
8.72286
5.35518
19.3013
19.3013
4.37895
19.3013
5.75749
5.4736
9.77028
5.90092
6.77052
5.40683
4.75472
4.32901
7.36166
4.66175
4.65874
5.72958
20.3901
24.2413
25.617
20.3906
21.2809
21.4985
23.7107
19.6309
23.4759
19.5386
10.0041
10.6661
7.67051
11.83
4.2964
3.90179
3.5036
4.80077
7.17259
8.76656
10.4578
10.0217
8.78623
3.69101
3.86261
2.76994
7.9784
9.5224
3.85851
3.75576
3.65026
4.05362
4.47068
6.89233
4.59937
5.08286
4.92599
12.2309
5.40361
3.46463
3.66422
14.3633
7.23285
14.4114
4.93739
3.27201
3.15563
6.08879
5.93778
3.49714
7.99604
7.87161
7.45935
8.00138
7.59568
7.28369
7.66956
7.53827
7.09062
7.45153
7.15747
7.50077
7.77991
7.52922
7.15652
6.78227
7.02026
6.74257
7.2288
7.89527
7.86511
7.4777
7.73018
7.31571
7.2293
6.57437
6.05967
6.3756
6.09099
7.22677
7.27231
8.22731
7.84271
6.01971
6.02395
6.16868
7.15178
29.2613
29.9927
24.9819
23.6181
38.8026
31.9794
36.7128
30.9436
29.0111
45.8811
35.6809
37.5551
37.195
44.015
58.1717
55.9109
4.68241
4.88387
4.87876
4.66078
4.62281
4.66643
4.69019
4.6107
4.81145
4.80558
4.55172
4.71941
4.56307
5.44937
5.18875
5.49023
5.47042
5.38942
5.09892
5.76472
5.53672
5.7154
5.47394
5.63315
5.75684
5.34459
5.49796
5.36496
4.87831
4.951
4.75391
4.82746
5.15718
5.06668
4.73627
4.76253
5.10701
4.92031
5.00988
5.04359
4.93458
4.95636
5.09106
5.26734
9.95956
9.91237
9.72934
9.10401
9.25602
9.61259
8.9454
8.78757
9.22974
9.37254
11.2155
11.0219
9.50629
9.18827
9.32391
9.40404
10.8552
9.75766
9.91564
9.73094
8.25574
8.07425
7.69059
7.31082
7.93374
7.75038
8.57645
7.90297
8.83529
6.62744
7.07688
8.63971
7.37915
8.13944
8.66184
9.63332
8.92997
8.79145
9.81847
9.9859
10.4185
9.32693
9.70767
10.6986
9.52669
11.4294
12.1556
11.5226
9.82789
8.98459
10.3858
12.5386
11.0709
12.8421
11.9789
12.1892
10.1454
13.5952
12.192
11.1583
10.7143
11.5614
12.4182
9.96798
9.72757
9.56494
10.341
11.1159
3.40022
3.14755
3.0889
3.05285
3.54234
3.45707
3.42177
3.5721
3.62889
9.17753
9.57352
8.48677
8.52202
9.15305
8.35576
8.26555
8.70242
7.93634
7.77699
7.86258
7.82731
8.09743
8.87765
8.34368
7.89948
8.19024
8.37791
8.70924
9.23855
7.88199
8.60728
3.75441
3.8071
3.74742
3.76012
3.7769
3.91613
3.81151
3.65047
3.79703
3.70476
3.79534
3.67001
3.80935
3.62765
3.63856
3.67244
3.71031
3.68686
3.70442
3.6871
4.98033
4.76897
4.87101
4.67775
5.01573
4.76753
4.84544
4.94347
4.87539
4.78214
4.81073
4.62373
4.69573
4.74017
4.69954
4.9323
4.83783
4.95219
4.63363
4.82156
4.68771
4.9221
4.65409
4.51043
4.59773
4.6194
2.78796
2.97421
2.95806
2.81881
2.64423
2.68817
2.47626
2.58549
2.93929
2.54625
3
2.74085
2.69102
2.42032
2.46448
2.69692
2.49512
2.48608
2.48015
2.49767
2.51456
2.56138
2.55554
2.70539
2.49625
2.55826
3.23494
3.28332
3.37092
3.35251
3.15171
3.18449
3.20428
3.6848
4.12062
3.65884
3.58115
3.22941
3.27822
3.30441
3.3668
3.33338
3.48216
3.28494
4.22709
4.30568
4.48303
4.25623
4.16558
4.39791
4.42215
4.13312
4.14897
4.25456
4.34083
4.15288
4.08994
6.45845
6.9791
6.53076
6.21809
6.53992
6.93318
7.44593
6.79958
6.75277
6.4262
6.58537
6.99679
6.63786
3.65589
3.18429
3.5013
3.60118
3.411
3.2583
3.43685
3.4815
3.46433
3.73857
3.76431
3.62417
3.72293
2.48746
2.23111
2.23967
2.2478
2.25832
2.4582
2.39268
2.47897
2.26229
2.24645
2.32063
2.34324
2.25563
2.25938
2.30295
2.26468
2.20866
2.26008
2.33859
2.36598
2.27641
2.29693
2.48592
2.46885
2.73428
2.34033
2.42923
2.4073
2.34043
2.43556
2.38113
2.55455
2.53606
2.48322
2.47098
2.50365
2.56319
2.54425
2.46345
2.44131
2.52387
2.59264
2.50143
2.52876
2.60323
5.27754
5.55708
5.79446
5.21435
5.2286
5.25271
5.29392
4.91772
5.04166
5.20206
4.81795
4.74816
4.65747
4.92085
5.10767
5.30349
4.8522
5.10103
4.93909
5.15631
5.17613
4.8704
4.88416
5.01058
5.56355
5.66608
5.70592
8.25914
5.69693
5.34584
5.44927
5.44167
5.54394
5.68233
4.60485
5.02935
5.21522
4.88527
5.94725
4.50287
4.87329
4.95008
5.40317
4.82353
5.10152
4.83369
4.87348
4.92892
4.6944
4.6359
4.67307
4.85882
5.11149
5.02041
5.21918
4.8281
5.06491
4.50768
4.57193
4.32386
4.35994
4.51706
4.65133
4.63417
4.67533
4.97162
4.9751
4.66082
4.58112
4.71969
4.82834
4.76559
4.67405
4.83077
4.82169
4.76757
17.117
15.8004
19.7464
14.2167
14.5045
18.3712
19.8417
16.3823
18.5642
17.3099
14.4899
18.6674
15.6227
4.14208
4.21278
3.935
4.02255
4.07528
3.87318
3.82958
4.00428
4.02705
3.92833
3.87206
4.22628
4.12768
3.84833
4.06756
4.03654
4.51234
4.07865
4.64527
4.44052
4.0325
2.4005
2.41731
2.39956
2.45057
2.44663
2.41871
2.49298
2.49484
2.43936
2.3718
2.52289
2.54893
2.37529
2.43026
2.38662
2.43105
2.46932
2.48352
4.3183
5.33628
4.32968
4.63889
4.6611
4.96159
3.65216
3.56805
4.97578
3.66351
4.12304
5.48628
4.28779
4.03368
4.06642
3.82079
3.60608
4.28434
4.61329
3.54222
4.67435
4.05521
3.70579
3.56273
4.16812
4.66741
4.72865
1.77324
1.83954
1.85598
1.7437
1.85775
7.82182
8.04776
8.24066
6.17339
9.86323
6.02607
11.3228
13.2256
14.5644
12.0384
15.9344
12.5609
11.2746
13.5359
7.559
6.14419
6.13803
6.3621
6.25014
4.97347
4.10073
4.59129
5.7346
5.1707
4.01177
3.7541
5.84839
6.24442
3.89437
3.84539
4.1054
4.43963
4.40829
4.91073
6.33524
7.31548
6.56353
9.75329
12.7313
2.29372
6.91894
3.41368
4.41261
18.9884
31.12
21.0573
21.1248
9.85875
4.55949
7.97426
19.7349
18.308
6.92038
4.9173
5.1696
4.24848
4.06888
4.20332
3.88205
3.99883
4.52883
5.62635
5.25804
3.59054
4.35292
5.14294
4.46391
5.16029
4.02132
4.86641
4.72147
3.70331
3.76109
4.65748
3.47605
4.57709
5.0217
5.37337
5.10036
3.5396
3.4215
3.56529
3.61694
4.08384
4.03634
9.07675
9.94818
9.75555
9.28557
9.57833
9.35145
11.5839
8.96561
10.1124
10.6556
6.6985
6.60362
6.82118
7.81761
9.98744
7.66217
10.2756
10.0414
6.6688
7.96794
5.01198
6.73563
3.64002
3.63201
3.61058
3.57339
3.5768
3.51316
3.59142
3.62375
3.59718
3.60014
3.54484
3.4983
3.49403
3.60362
3.58129
3.53418
3.55939
3.53204
3.45008
3.4976
5.72835
5.93273
7.04247
4.64828
5.61702
4.75067
7.14855
5.09427
5.4914
4.46043
4.52601
5.44588
4.67646
4.52292
4.87209
9.00015
8.56737
8.59464
8.98875
9.99526
8.02665
9.32717
9.3278
3.03621
3.15318
3.11976
3.14716
3.10654
3.10102
3.13953
3.22494
3.06408
3.0631
3.16784
3.0819
3.57531
3.67071
9.84534
5.40868
3.40585
4.04269
9.33661
6.95388
9.5781
10.0641
15.2187
7.5181
11.5387
17.3697
7.17278
4.46932
4.45399
4.88926
2.99163
3.03887
3.00476
3.01864
3.08237
3.03655
2.99723
3.16278
3.08221
3.07492
3.12617
3.18478
3.05224
3.03781
3.06676
3.17365
3.22251
3.10246
1.88213
1.88445
2.03204
2.07436
1.94535
2.02816
1.86443
1.884
1.93236
2.14682
2.00779
1.9215
2.34625
1.95504
2.00638
2.01831
2.0251
1.91408
1.9206
2.08397
2.02401
1.90101
15.8267
14.4476
16.3192
18.9279
15.1689
18.0754
15.91
14.3575
17.0396
18.8474
18.49
17.0449
16.7715
15.6479
17.0035
15.2599
6.91125
6.61678
6.53689
7.27843
6.05661
5.90634
6.68325
5.82266
5.23695
5.39405
5.68417
5.57239
5.69033
5.17408
5.36168
5.68074
5.3944
5.41207
2.26243
2.71784
2.67765
2.29
2.14438
2.04786
2.43465
2.5154
2.38705
2.26922
2.17429
2.20626
2.11462
2.06201
2.19711
2.10579
3.90078
3.87204
3.94943
3.89087
3.7383
3.89484
3.87647
3.8898
3.91266
3.90047
3.86362
3.91676
3.90385
3.87737
3.82801
3.82111
3.7887
3.78643
3.7341
3.74377
8.81899
8.61947
7.62298
6.61376
5.03502
7.15227
5.77002
6.26215
6.70097
7.94402
5.09885
4.85591
5.86906
6.076
5.35022
5.63741
3.72729
3.8366
3.41928
3.50151
3.07804
3.49735
2.82688
3.34189
2.85221
2.6465
2.78998
2.64454
3.55066
2.99507
2.50296
3.22715
3.9446
2.1327
2.0684
3.43529
3.19394
2.94793
2.01956
1.94028
2.66114
3.11082
2.26186
2.16268
2.63889
2.823
2.83272
2.84042
3.06426
3.11052
3.0619
3.12492
2.80466
2.87839
2.68846
2.7614
2.78887
2.74351
2.97472
2.97085
2.72074
2.8694
2.94175
3.77966
4.05238
3.40743
3.13637
4.55224
4.13494
3.5151
3.50453
3.93856
3.1169
3.16259
3.06856
3.08761
3.22876
3.25388
3.10115
3.2144
3.16905
3.65438
3.36135
3.21158
3.23663
3.30218
3.311
3.26983
3.20394
3.32515
3.30528
3.24473
3.32052
3.23627
3.25107
5.93012
5.63062
5.69476
5.83162
5.56949
5.75132
5.85291
5.77222
5.68661
5.70605
5.68506
5.52697
5.50961
5.51521
13.3022
13.648
17.8938
17.4839
18.3761
18.4895
13.2145
11.8369
15.4287
16.3647
13.5946
16.5858
14.4315
15.0423
1.88901
1.90865
1.92593
1.94387
2.25819
2.42089
2.24081
2.37232
1.92648
2.13704
2.11389
2.10367
2.22374
2.08208
1.98075
4.84038
5.65008
3.8979
2.39655
4.20761
5.41319
5.94522
3.60577
3.98779
3.63176
3.67911
4.01371
3.70031
3.75705
3.62143
3.47965
3.74653
4.37401
4.20775
3.82209
3.89703
3.99019
3.6753
3.90001
4.30963
3.73085
3.76587
3.78563
3.74959
3.65286
3.72661
3.53033
3.48375
3.53823
3.66323
3.59925
3.56511
3.61383
3.42825
2.61362
2.65855
2.84328
2.86323
3.02731
3.47735
2.73245
2.62071
2.62199
2.97336
2.70716
2.65374
3.40305
3.24777
3.05147
2.89131
3.42812
2.59805
2.43116
3.59444
3.41033
3.4042
3.16825
3.65114
2.3755
3.04336
2.49488
3.44831
3.71661
3.18624
3.50251
3.83345
4.0382
3.46206
4.0118
3.7972
4.14953
3.947
4.24373
4.19796
4.10713
3.44189
4.00765
3.21054
3.25408
3.91838
3.69813
3.56183
3.39329
4.0811
4.11684
4.18076
4.11457
3.98209
4.09699
3.99898
4.03281
4.04038
4.0234
3.9596
3.98059
3.98044
3.93209
4.03297
4.04025
3.97054
3.93921
3.94833
3.92117
6.89318
6.59343
5.3157
5.70524
7.32322
6.25095
5.53427
6.56129
4.93808
5.05649
5.02252
6.71257
7.84265
7.43137
7.49961
7.55285
7.66716
7.4583
8.02049
7.87446
7.33337
7.36766
7.05182
7.10776
7.03881
7.95751
7.65493
2.26545
2.33415
2.2838
2.26097
3.01954
2.9954
2.93109
2.79259
2.80652
2.43792
2.63178
2.19217
2.21406
2.56506
2.54642
2.41585
2.87682
2.8693
3.30428
3.08348
2.9413
3.83968
3.78811
4.3172
4.13002
3.54786
3.98423
3.70421
4.05128
6.90463
6.12122
6.27156
5.89293
6.44793
7.90916
5.98812
6.06888
5.90435
6.11497
6.59879
8.08425
6.13096
14.6849
15.4754
15.4089
12.7716
13.7688
13.0183
12.1865
9.23534
10.0014
15.5004
14.8583
16.1317
16.3497
10.0366
9.37614
13.906
11.5988
9.93507
11.2807
13.9827
4.75919
4.73777
4.63184
4.71539
4.53663
4.46875
4.94697
4.59028
4.65557
4.58206
4.93785
4.65293
4.66827
4.914
2.75245
2.12522
2.16438
2.16028
3.72731
5.51089
3.02136
2.78957
3.47727
3.95443
2.19388
2.42158
3.23016
2.81157
2.07823
3.16862
2.59277
2.23628
6.1905
6.77929
4.70821
4.71827
6.21127
6.66086
6.12423
4.84676
4.97918
5.17109
4.85084
4.87385
6.32502
6.76332
7.1735
6.15247
6.77549
5.81135
5.65535
5.13278
29.5227
6.71424
13.7871
6.8431
9.3801
2.41033
2.36646
2.63274
2.74097
2.28641
2.38753
2.31652
2.28337
2.78485
2.59971
2.51007
2.56716
2.27235
2.41157
12.3389
12.4994
13.1123
18.632
16.027
18.4689
6.16438
7.77373
11.908
15.7548
6.25696
4.7654
4.87285
4.95527
4.88685
4.62582
4.64118
4.7599
4.73802
4.86643
5.01306
4.87752
6.94099
7.07542
8.29284
7.89508
6.55767
6.13856
6.20804
7.68474
6.77205
6.34501
6.47464
5.86906
7.64742
8.25195
7.51752
5.60308
5.72129
5.50609
5.44301
5.62797
5.50856
5.22529
5.32889
5.28182
5.28512
5.53243
5.7917
5.3979
5.50278
5.4385
5.38946
5.69528
5.83201
5.4075
5.62865
5.51397
7.85959
7.48737
7.52495
7.10175
6.85661
6.41025
7.67152
8.14311
7.19068
6.50229
5.94025
6.82869
5.96586
7.42014
5.90586
7.05721
6.44542
8.27234
8.21575
7.92964
7.80866
8.50865
8.90657
8.37226
9.43654
9.81408
8.79048
8.24005
9.13398
8.55781
7.49096
8.16354
9.08884
7.98977
8.27657
7.70417
8.34764
5.83074
5.974
5.77415
5.8546
5.59716
5.79288
5.95375
5.69533
5.74404
5.90576
5.88833
5.91667
6.12915
6.13742
2.66459
3.02942
2.85353
3.00506
2.9245
2.80373
3.46288
2.78969
2.87476
3.01741
3.79591
2.99926
2.84311
3.9379
3.2569
3.81533
4.3218
2.87375
3.17761
3.55187
5.55832
3.76728
4.70231
3.28867
4.82897
2.08915
2.13115
2.29477
2.05399
2.18451
2.20247
2.1088
2.16283
2.2341
2.13131
2.0401
1.99977
2.06472
2.00066
2.0762
4.0559
4.12633
3.58306
3.32481
10.0067
11.1567
3.2948
11.7292
3.72339
3.96043
3.72328
6.55013
5.75037
10.6043
12.2429
8.27922
9.63401
8.53938
5.71363
5.87422
5.82439
5.69263
5.97239
6.49697
6.19245
6.01863
5.84122
5.66544
5.67625
6.35566
5.82123
6.42864
5.96429
6.51805
5.72743
5.68727
6.47793
5.92425
6.31074
4.58838
4.50127
4.50211
4.4824
4.52199
4.51626
4.58838
4.60838
4.54195
4.55355
4.60977
4.69797
4.80901
4.72469
4.68373
3.626
3.69286
3.64997
3.63452
3.68297
3.75574
3.71259
3.60769
3.95825
3.77318
6.74428
6.89217
7.15715
6.96497
6.54835
7.07734
7.53124
7.32403
7.31884
6.8553
6.74958
6.99777
6.15384
6.37831
6.85143
5.40254
5.73448
5.62732
5.51498
5.92214
5.85953
5.2137
5.89251
5.86512
6.94634
6.38577
5.90451
5.42311
5.59047
6.64373
7.14847
5.84433
3.01742
3.12277
3.12806
3.12605
2.61735
2.9227
2.59111
2.59827
2.5674
3.24516
3.36107
3.16007
2.6072
2.85283
3.41805
44.3284
15.017
20.9545
10.039
17.8933
35.764
31.7622
26.3128
12.9743
11.5643
11.7835
23.6687
15.8552
15.0583
27.3271
4.93685
4.79539
4.92557
4.87542
4.71909
4.84036
5.36211
4.94893
5.71039
5.09233
5.47279
5.02674
4.9001
5.12694
5.0344
4.82125
4.77479
4.86189
5.04176
4.66286
4.63077
4.97089
4.87915
4.97441
4.8368
4.8115
4.85962
4.69797
4.75493
17.7166
13.3638
18.7846
33.1291
24.2985
18.8304
17.2244
38.8387
19.2105
3.08206
2.86796
3.15512
3.12457
2.83059
2.85222
3.20348
4.02344
4.0146
4.90235
4.81814
3.58715
3.73621
4.5693
3.26629
4.15599
4.20317
3.29823
59.7777
66.9503
81.1599
38.2144
64.792
75.0834
105.349
101.138
45.0829
89.1212
60.3073
61.1963
85.1144
88.1013
122.341
124.519
212.202
76.5919
92.2337
122.495
204.111
62.2229
65.9204
62.0297
81.1257
63.6792
121.402
46.9797
46.1197
82.0666
62.5249
8.69993
5.61851
7.06083
20.2332
8.29397
26.0358
4.83922
8.30688
14.6637
7.98247
9.50813
9.27948
10.5373
9.53748
10.0911
8.89168
8.39161
9.69431
10.6185
9.74645
10.5863
10.45
9.85132
10.2955
9.9085
14.9585
15.0175
15.252
13.935
16.9689
17.1582
14.4029
13.2125
17.1553
14.7821
15.3957
11.6039
12.6517
10.7856
13.7033
9.11415
14.9628
13.1001
8.56413
24.936
23.4785
32.8729
28.7046
28.0429
26.866
28.3087
34.7047
37.1005
35.9938
36.8191
41.8264
45.2211
8.36324
7.47614
12.8539
15.5202
7.9456
8.39549
14.7185
11.4535
7.49414
7.28124
11.8967
8.51175
8.08039
8.2494
9.66349
14.1154
16.1713
19.6243
15.4244
19.0713
16.3785
10.4464
22.856
13.1777
22.529
23.2164
22.418
28.2482
24.9051
9.44716
8.58846
20.6699
26.5374
28.2318
20.7154
3.35409
3.31574
3.23158
3.27729
3.30742
3.34247
3.37121
3.32342
3.19107
3.19208
3.32273
3.36904
3.28588
3.37184
3.34789
3.69663
3.56158
3.58374
3.25433
3.4528
3.60818
3.30928
7.35033
6.86858
7.1897
6.73638
7.1283
7.33417
7.81241
7.68426
7.34456
7.03181
7.12011
7.67001
7.11059
7.81196
7.50119
7.40783
7.16651
3.57448
3.76644
4.07047
4.06177
3.90359
3.70467
3.54805
3.59044
4.15768
4.38355
4.88973
4.78866
5.39188
3.26007
3.80332
4.03046
3.95494
4.28468
3.9071
14.9394
12.8711
8.2169
8.49889
7.70606
7.49281
8.44605
10.1594
15.9633
16.2835
15.132