/*--------------------------------*- C++ -*----------------------------------*\
  =========                 |
  \\      /  F ield         | OpenFOAM: The Open Source CFD Toolbox
   \\    /   O peration     | Website:  https://openfoam.org
    \\  /    A nd           | Version:  10
     \\/     M anipulation  |
\*---------------------------------------------------------------------------*/
FoamFile
{
    format      ascii;
    class       volScalarField;
    location    "12";
    object      p;
}
// * * * * * * * * * * * * * * * * * * * * * * * * * * * * * * * * * * * * * //

dimensions      [0 2 -2 0 0 0 0];

internalField   nonuniform List<scalar> 
75457
(
-33.9352
-30.8827
-26.7149
-24.5521
-20.1957
-21.2385
-29.7919
-29.3245
-19.213
-13.9147
-17.6959
-19.1625
-18.4175
-16.2851
-3.86864
-4.31658
-4.04634
-4.18293
-4.66382
-4.19237
-3.66437
-4.35585
-4.36198
-4.64616
-4.43621
-4.7446
-4.45768
-1.14212
-1.15316
-0.775759
-0.461263
-0.674804
-0.759254
-0.894057
-0.320291
-1.22545
-1.12524
-1.39421
-1.4878
-0.535197
-0.740721
-0.524522
-0.944858
-11.0686
-11.0241
-10.2183
-10.3012
-10.6902
-5.64082
-6.1778
-6.54039
-5.95325
-6.02799
-6.16729
-6.54418
-6.64732
-6.37108
-6.58997
-5.95969
-6.1974
-6.02755
-5.92457
30.6403
30.9016
30.6408
30.9662
31.1916
31.2201
30.8797
30.918
31.1776
30.969
30.7139
30.958
30.9478
30.639
30.8375
-8.44831
-9.35436
-7.88903
-9.44462
-10.8532
-6.07927
-6.31884
-8.31426
-8.93224
-8.60843
-8.55895
-6.51755
-7.12846
-6.28589
-5.98042
-6.81578
-6.12115
-7.16318
-7.32667
-7.35686
-7.7094
-7.30346
-7.12648
-8.32607
-7.54663
31.1283
31.0168
31.2792
31.2954
31.1604
31.011
30.9304
31.3835
31.3854
30.9973
31.0094
21.6904
22.3541
24.8255
24.3976
21.7537
23.3382
23.3696
22.8378
23.1962
24.8918
24.6755
25.2206
25.7607
24.5097
23.9467
22.7462
25.1737
24.1664
13.1987
13.1604
12.5779
13.4714
13.0624
14.5983
14.2815
14.169
14.1583
7.28101
6.82141
7.38666
6.93361
6.36726
6.87747
6.89711
5.9534
-7.66111
-7.70038
-7.09672
-7.29746
-7.68178
-7.34126
-7.05305
-6.56952
-5.03683
-5.08426
-6.611
-6.33608
-5.87178
-6.57543
-5.459
15.8025
17.4099
17.653
16.9897
17.4115
13.6822
15.0702
16.6366
15.643
16.6081
13.9261
12.6051
13.1995
-9.97133
-10.4401
-10.3134
-10.5115
-10.2893
-10.4199
-9.73884
-10.4206
-10.2771
-10.5116
-10.4952
-10.3233
-10.2448
-10.3847
-9.26423
-7.94364
-10.4244
-7.80359
-8.17438
-9.74414
11.9641
12.766
11.4348
12.1629
10.3683
11.1913
13.5242
13.2581
12.3252
9.56261
9.54637
-7.95865
-7.80302
-8.20071
-8.15566
-8.11428
-8.04339
-7.87611
-7.71723
-7.30348
-8.16739
-7.9239
-7.69463
-8.05305
-7.63592
5.74529
4.7898
5.19873
3.46265
4.03396
4.81039
4.73723
5.98672
5.56241
4.59473
3.97859
3.29949
5.59688
4.00999
-7.26076
-7.3416
-6.97732
-6.94374
-7.27044
-7.19792
-7.33913
-7.28495
-7.49303
-6.92927
-7.1798
-6.66955
-7.33462
-7.41635
-7.14955
-7.10718
-7.28144
-10.253
-9.95536
-10.0094
-9.86982
-11.1591
-9.65517
-9.56118
-8.93949
-9.84875
-10.2661
-9.41202
-9.98655
-12.1231
-12.1643
-12.0563
-12.1121
-12.0161
-12.4008
-12.6913
-12.3373
-12.2984
-12.684
-12.1281
-11.9895
-12.2217
-5.67633
-5.43003
-5.73217
-5.13992
-5.1752
-5.04261
-4.84978
-4.77942
-4.76587
-5.27195
-5.59144
-5.47161
-4.6795
-5.14169
-5.04305
-0.404989
-0.302165
-0.213338
-0.419324
-0.175962
-0.215883
-0.578973
-0.664222
-0.106811
-0.0582245
0.386396
0.059339
-0.059168
0.320712
0.984715
0.384506
0.0359201
0.552576
0.17566
0.182173
-0.0420913
-0.0375709
-5.55818
-6.51986
-3.81559
-4.52304
-4.8948
-5.54812
-5.38205
-5.56293
-5.51462
-4.27729
-5.15008
-8.20778
-8.34934
-8.52923
-8.53025
-8.44883
-8.15253
-8.22238
-8.62815
-8.81556
-8.60696
-8.84737
-8.00397
-8.30779
-8.40857
-8.5968
-8.34071
-8.46779
-15.5697
-14.3592
-13.9948
-15.5241
-18.4834
-18.3633
-17.8777
-17.01
-17.0677
-16.3171
-17.87
-3.752
-4.3004
-4.98276
-4.85227
-4.45418
-4.6443
-4.06581
-4.82033
-4.94561
-4.37346
-4.36565
-0.199964
-0.103417
-0.306446
-0.376795
-0.119077
-0.104844
-0.403242
-0.137044
-0.445683
-0.559524
-0.538688
-0.227237
-0.432916
-0.891791
-0.779126
-5.95862
-4.73279
-7.17418
-5.89372
-5.96041
-7.42491
-7.79054
-7.42468
-7.76121
-7.76442
-7.40913
-8.20948
49.3448
54.1387
42.7787
45.3968
48.2031
50.2853
49.9256
52.7655
45.4166
49.8181
48.0384
49.0623
45.208
49.6599
43.8882
45.4163
47.3189
42.3531
34.1573
33.7161
34.509
35.2437
36.1543
37.1364
34.3778
34.9895
37.4884
40.9905
37.7249
37.8994
39.5713
25.473
22.6992
20.1148
21.7547
26.3974
23.0834
21.637
23.0385
22.6485
20.7572
28.0774
28.0338
21.0864
22.6448
20.1211
26.3754
28.4712
28.5027
24.4802
24.4712
25.1328
26.4751
-9.28532
-9.67246
-9.92014
-9.91327
-10.0324
-9.45984
-9.52411
-9.67371
-9.73876
-9.40211
-9.84
-9.4285
-9.60048
-9.50256
-9.6861
-9.64957
-22.6943
-25.4194
-13.6539
-21.1507
-12.0056
-18.6302
-15.5639
-12.9541
-12.3214
-16.8033
-29.7682
-24.8948
-16.7779
-22.685
-11.8514
-14.5709
1.50468
1.35001
1.52073
2.35824
2.72645
3.32877
1.15943
0.83289
2.48243
2.45541
3.33759
2.99126
2.71811
2.64053
2.48232
1.83209
1.09875
1.90435
33.2896
37.2868
35.8348
32.4718
33.7862
36.5305
40.0862
39.1997
34.0166
40.0296
41.7028
39.9729
36.0767
32.8657
33.6681
34.7358
26.4
25.7446
26.2474
26.021
25.1695
26.9627
27.5392
26.9196
26.2871
27.2223
26.6628
25.8442
26.7007
25.1182
25.8042
27.3369
27.8159
11.7268
11.5804
11.2951
11.6644
11.6468
11.7012
11.7827
11.8674
11.9017
11.7509
11.3892
11.4491
11.9601
11.6072
11.7188
11.0042
11.009
-4.54764
-5.43121
-6.87244
-5.9579
-5.08116
-5.09771
-4.84188
-4.82812
-5.49293
-5.05392
-6.58035
-6.69029
-5.67503
-3.91687
-6.22562
-5.43179
-5.32595
-6.05846
-3.98444
-4.02053
-3.9191
-3.841
-3.28451
-3.65537
-3.79868
-3.82038
-3.35215
-3.51693
-3.62193
-3.288
-3.24243
-3.56786
-5.88294
-5.58213
-6.36665
-7.24487
-7.25113
-6.60034
-6.27376
-6.25178
-6.13524
-7.00203
-7.12907
-6.87917
-6.60725
-6.08397
-6.39516
-7.05935
-7.30547
-7.40843
20.7895
16.5247
17.36
24.1
20.4001
14.5154
17.4779
17.5881
14.0536
22.455
17.6306
14.7034
-8.80967
-8.58832
-8.50486
-8.34025
-8.65233
-8.4575
-7.37834
-7.76372
-8.66357
-8.69964
-8.60243
-7.82839
-7.88875
-8.36254
-8.55918
-8.36439
-5.02132
-5.49228
-4.63243
-4.95692
-5.94731
-5.81061
-5.85041
-4.72299
-4.58265
-4.59187
-4.59795
-5.45782
-5.78233
-4.83935
-4.45739
-5.30422
4.03765
3.2754
2.60732
5.79307
6.68054
4.28953
4.99058
1.75428
3.32889
4.00014
5.58937
4.52281
5.58264
6.38297
6.11325
3.06201
3.15498
4.44537
2.53508
-2.47157
-1.52511
-2.49835
-3.78555
-2.92122
-1.98801
-3.58741
-3.17214
-2.52743
-2.87115
-2.37771
-3.71555
-2.63476
-2.21958
-1.83643
-1.50334
-1.43161
-2.20772
-1.77555
-1.908
-1.68609
-1.63684
-2.17065
-1.47032
-1.94872
-1.70146
-2.36012
-1.33826
-1.38386
-1.45376
-1.34544
-1.77369
-4.53065
-5.14483
-4.24443
-2.89043
-3.34808
-6.98866
-4.46927
-4.1888
-4.176
-5.30331
-6.73186
-7.07785
-7.39289
-7.47452
-7.16982
-8.24363
-8.67505
-8.3299
-9.31232
-6.64037
-6.56021
-8.55137
-9.50815
-9.31061
-8.45171
-8.32077
-9.36637
-8.5419
-8.07778
-8.64993
-8.62946
-7.67878
-10.2516
-10.2769
-10.0307
-10.1948
-9.97765
-10.1001
-10.1892
-9.95481
-9.79446
-9.91783
-10.0809
-9.88679
-9.96606
-9.93402
-9.99449
-9.8995
-9.97119
-6.59381
-6.96393
-8.19277
-7.85953
-7.17729
-7.70102
-7.87003
-7.68125
-7.40656
-7.82066
-7.08852
-4.19135
-4.61997
-3.23567
-2.86941
-3.37921
-2.59141
-3.02256
-2.11653
-3.33314
-3.11295
-3.06605
-2.93281
-2.77675
-2.78638
-2.60478
-2.58765
-2.88553
-2.8116
-2.26742
-2.73813
-2.52472
-2.895
-2.86305
-2.45923
-2.47928
-2.60755
-2.29823
-2.58308
-2.42826
-2.2324
-2.46813
-2.18437
-2.40947
-2.53204
-2.26147
-5.70221
-5.95078
-5.82229
-5.78025
-5.37885
-4.74964
-5.70681
-4.57799
-5.30574
-4.04761
-4.8661
-5.28145
-5.46187
-5.05243
-4.79841
-6.16622
-5.12908
-4.64993
-4.46819
-4.38996
-7.15531
-7.31068
-7.46695
-7.43809
-6.74998
-6.84189
-7.41758
-7.39367
-7.26599
-6.29909
-6.58913
-6.57346
-6.30458
-6.79324
-6.73919
-6.99704
-6.18888
-6.37159
-6.87572
-6.96856
-6.29506
-6.43811
-5.90425
-6.93017
-6.25848
-6.83887
-6.50171
-7.55146
-5.95924
-5.83085
-5.81591
-6.45848
-6.78609
-6.28974
-7.02638
-6.28985
-6.11033
-6.46099
-6.19098
-6.90936
-6.47492
-7.79406
-7.27498
-8.07487
-8.8725
-8.44423
-8.24168
-7.7627
-7.70272
-8.59997
-8.67264
-9.06528
-7.96663
21.876
22.383
23.3458
22.3675
23.1749
21.8737
22.9186
21.761
22.3503
23.3492
-9.34189
-9.12186
-8.78851
-8.8307
-9.36871
-9.38938
-8.90713
-9.10953
-9.3127
-8.76988
-9.15674
-9.02981
-9.01639
-9.33411
-9.08016
-9.33164
-9.36971
-9.76497
-9.21676
-10.0961
-9.86412
-9.50477
-10.1829
-9.07381
-9.87954
-8.98923
-8.80818
-9.83595
-10.05
-8.92732
-9.90968
-10.0727
-9.47651
-9.1478
-10.1324
-9.45779
-9.44707
11.1715
11.5725
12.2718
11.6918
11.3687
12.4969
9.07783
10.6549
10.8795
10.5411
9.835
11.9333
11.4067
11.9433
11.0602
10.625
-15.1435
-16.151
-15.0656
-14.553
-14.5822
-12.2969
-13.0636
-13.7672
-14.6387
-14.9921
-11.1934
-12.7876
-14.0203
-10.8753
-11.9054
-10.0922
-9.83606
-9.87012
-10.8148
-10.9265
-11.652
-10.0512
-9.58435
-9.3278
-10.5089
11.8706
10.8558
10.4846
10.5568
10.6245
9.10789
8.77108
8.17911
8.22786
8.79816
8.9361
8.00849
9.82731
8.90227
10.6314
10.7356
8.7423
9.88092
9.49097
-9.32152
-9.32625
-9.78291
-9.21112
-10.6584
-9.52096
-9.10534
-9.60937
-9.73252
-9.24146
-9.15136
-9.79444
-10.0554
-10.5013
-10.0432
-9.32031
-9.22389
-10.0911
-9.92529
-6.16225
-7.31133
-6.59138
-6.4539
-6.35935
-6.63789
-6.39151
-5.86028
-6.9784
-6.76843
-6.7475
-6.31327
-6.79167
-6.65409
-6.98412
-7.05592
21.3116
21.8911
21.2358
21.0193
22.3223
23.1911
22.8875
22.0026
22.0559
22.8859
23.0548
22.1389
22.9445
23.5085
24.1615
23.6134
-12.5531
-14.5037
-10.8352
-10.8432
-15.5156
-18.2917
-7.72519
-8.84049
-11.3558
-13.8966
-10.8076
-11.5276
-13.1271
-18.092
-16.3696
-9.28844
-14.1238
-11.1785
-14.5689
-16.9774
57.6774
51.7295
47.3819
47.0457
56.1543
57.4565
50.9655
55.7723
49.9526
51.9457
49.527
49.9615
46.7859
46.6516
52.3681
20.0227
18.7029
23.3419
24.9922
22.8372
19.784
25.1592
21.7173
24.1604
27.4218
26.3473
27.5865
29.325
27.1225
-14.7849
-15.5263
-15.0758
-15.8315
-13.9291
-14.2002
-12.5876
-11.4516
-13.7903
-13.7309
-11.9268
-11.46
-14.211
-12.5019
-12.1842
-12.7998
-5.23204
-4.94105
-4.98485
-5.16024
-4.95736
-5.26168
-4.86322
-5.21704
-5.40729
-4.75089
-4.82203
-4.76016
-5.33
-5.17336
-4.84184
-5.04336
-4.98447
-5.30797
-5.11417
-10.375
-10.3702
-9.92433
-10.7334
-10.8824
-10.6584
-10.0759
-10.7982
-10.7176
-9.29552
-9.85716
-9.65338
-10.1798
-9.84665
-10.9685
-10.622
-9.37852
-9.79819
-9.49448
-9.60954
-9.29312
-9.35349
-9.78089
-9.21952
-9.39338
30.0961
29.2749
29.3416
29.778
29.9481
29.5664
29.3518
29.3816
30.0912
29.8925
29.9485
29.702
29.7704
29.5521
29.8654
29.9294
29.9615
29.7579
29.409
30.0246
-7.09045
-7.89646
-7.03002
-7.536
-7.02329
-6.70533
-6.85822
-7.62941
-6.64107
-6.94517
-7.14166
-7.32677
-4.23996
-4.32821
-3.94483
-3.80545
-3.63005
-4.30954
-4.32252
-4.44821
-4.21808
-3.7921
-3.78687
-4.09644
-4.12424
-3.78888
-3.92284
-3.86491
-4.03995
-3.88803
-3.15988
-2.98526
-3.26896
-2.98382
-3.12723
-3.517
-3.58358
-3.71116
-3.754
-3.04761
-3.47711
-3.17115
-3.81088
-3.68834
-3.30983
-3.14283
-3.81272
-3.52212
-3.08588
-2.36434
-2.50345
-2.64173
-1.93365
-2.35189
-2.08587
-1.98749
-2.80083
-2.40261
-2.89632
-2.83827
-2.07557
-2.08471
-2.2358
-2.94826
-2.88214
-6.64483
-6.44884
-6.61194
-6.45456
-6.48063
-6.16183
-6.05934
-7.08844
-7.08865
-9.67672
-9.43181
-9.47612
-9.64054
-9.68078
-9.71662
-9.556
-9.84961
-9.56244
-9.4318
-9.68804
-9.50761
-4.11397
-3.97328
-4.11825
-4.13187
-4.0453
-4.24969
-4.18925
-4.38684
-4.34922
-4.15807
-4.6063
-4.57083
-4.51154
-4.61474
-4.43639
-4.60661
30.5772
30.7952
30.507
30.2509
29.9097
29.9984
29.5094
29.4508
29.7175
30.247
-8.23101
-8.00978
-8.25822
-8.02523
-8.3114
-8.20409
-8.48574
-8.45489
-8.55891
-8.59705
-8.30078
-8.15534
-8.35075
-8.72897
-8.63613
-8.40575
-8.34855
-8.34371
-5.07466
-5.37278
-4.98664
-5.06324
-5.01732
-4.98745
-5.22846
-5.02116
-5.15708
-5.57869
-5.32551
-5.40656
-5.17202
-5.35206
-4.93536
-5.0357
-5.24198
-5.03888
8.23238
7.61011
7.00765
7.9985
6.15804
5.58379
8.64293
8.10505
6.77536
8.31576
7.32371
6.40082
7.17801
7.21596
30.3424
30.2394
30.1222
29.9471
30.3948
29.9917
29.8112
29.8451
30.1507
29.9687
30.1359
30.2605
29.8383
29.8034
29.6919
29.7344
30.112
29.9072
30.0515
29.8211
42.7004
41.3366
34.5084
37.6145
27.1371
31.4841
16.9913
32.7333
32.7006
30.0673
35.7856
25.9674
37.626
42.7739
38.5892
46.0754
27.6896
38.9379
34.4517
-9.09162
-9.44167
-6.04641
-4.53461
-10.7728
-12.6996
-11.96
-14.1195
-5.64712
-5.74406
-15.9465
-12.5022
-7.53048
-12.2846
-13.2376
-8.52763
-8.83757
-13.111
-10.5606
-10.1433
-1.14154
-1.70638
-1.66897
-1.68738
-2.06154
-1.26571
-2.49933
-1.84138
-1.82803
-1.8322
-1.84325
-1.70333
-2.47741
-1.55426
-2.52359
-2.45871
-2.21755
-2.24093
-1.4928
-15.978
-15.8579
-16.8138
-16.5197
-16.9731
-17.5001
-15.1565
-15.7865
-16.544
-13.5842
-15.6594
-15.2092
-15.3529
-16.1897
-15.9889
-16.1946
31.9578
31.9085
31.7754
31.8518
32.1249
32.1423
32.0191
32.0481
31.8582
31.7221
32.2426
32.0187
32.1828
32.1774
31.8011
31.724
31.8922
32.0633
32.1943
31.7889
-0.506369
-0.654065
-0.0921902
0.325381
-2.59792
-2.67935
-3.10786
-3.96093
-1.87681
-0.490301
-0.11675
-2.5969
-2.94064
-3.4641
-4.19249
-4.0775
-1.77004
-3.57867
-3.33327
-2.27724
32.167
32.0641
32.1476
32.1906
32.1799
32.1929
32.1149
32.2488
32.3111
32.3153
32.3811
32.0944
32.2644
32.2262
32.3399
32.3216
32.2102
-5.61875
-5.54006
-5.64957
-5.88064
-5.83079
-5.53658
-5.35226
-5.70823
-5.77122
-6.04103
-5.37953
-4.97856
30.2959
30.1097
30.6564
30.6576
30.417
30.3594
30.0274
30.2416
30.4562
30.6232
30.6622
30.2919
30.1379
30.2548
30.0496
30.254
30.052
30.3138
30.3803
30.0402
30.2819
23.9298
23.4913
23.5894
24.0053
24.0364
23.1983
23.5821
25.2272
25.3939
25.1778
24.492
24.1278
23.7681
23.7105
23.7289
24.4258
24.3059
24.3201
8.90308
9.16347
9.24689
8.82547
9.09004
9.79805
9.44038
9.47858
9.22365
10.3867
10.2153
10.4631
10.293
9.36004
9.0872
50.175
45.1019
39.2706
40.6909
47.0299
45.1296
56.5973
41.9568
48.8129
43.7096
56.1572
55.9653
51.6837
44.9394
-1.87448
-1.51751
-2.16623
-2.77597
-2.57559
-2.92769
-1.91001
-2.04098
-2.33279
-2.00454
-2.82977
-2.34504
-2.00869
-1.52037
-1.7249
-2.2718
25.7849
23.7297
25.3696
23.5691
23.2331
23.6226
23.9442
23.9979
24.8537
25.2564
27.714
27.2041
26.222
28.5397
29.1257
26.5425
27.5739
31.4706
31.4342
31.0345
31.1315
31.2372
31.2852
31.5062
31.5416
31.0031
31.1182
31.4525
31.4827
31.4371
31.3192
31.2741
31.4405
31.2489
-10.6309
-8.51787
-8.59632
-11.5052
-7.61017
-12.6929
-17.769
-7.74122
-10.2325
-11.2748
-10.3443
-9.53891
-10.2011
-8.07907
-17.3457
-17.4093
-14.6157
-15.5278
18.6743
18.3293
19.9328
19.6019
18.9094
17.597
18.009
19.5562
20.0286
19.6338
19.3925
19.6926
18.0268
17.7757
17.1319
18.9191
17.8063
18.4296
17.3846
18.892
18.1921
17.9562
-4.11021
-4.55196
-4.27636
-3.93563
-3.61917
-3.74459
-2.56354
-2.95463
-3.61346
-4.38061
-3.78146
-3.91125
-3.0383
-2.95162
-3.00063
-2.94188
-4.49845
-5.02168
-4.33999
-4.42516
-4.84143
-4.68966
-4.43566
-4.72535
-5.03355
-4.84775
-4.90383
-4.18572
-4.23552
-4.12707
-4.30253
-4.27571
-4.99499
-4.96982
-4.87892
-4.6049
-4.25475
-4.67882
-4.82233
-4.68755
-4.74762
-4.9009
-5.12275
-5.16646
-4.67593
-5.03748
-4.66745
-4.82179
-4.56841
-5.03343
-4.25174
-4.56221
-4.36046
-5.08549
-4.71402
-4.36969
-5.08293
-8.62346
-9.11257
-8.91591
-10.5325
-7.52829
-6.49026
-9.61201
-9.36715
-4.7796
-5.39347
-3.21073
-6.30064
-4.11132
-6.60943
-6.14587
-7.86081
-7.65056
-6.13354
-5.73045
-2.44629
-4.52008
-3.05742
6.96074
5.30637
4.63198
5.13406
5.74995
7.34847
7.23408
6.14574
5.42244
4.56766
4.98223
5.14463
4.76387
5.81911
5.68385
6.75241
5.536
4.79452
5.45882
-7.70467
-7.26328
-7.45064
-7.51389
-7.6499
-7.68234
-7.87086
-8.17759
-7.66697
-8.2616
-7.7637
-7.56961
-7.61987
-7.54616
-7.61042
-7.56084
-7.61268
-4.65912
-4.84973
-6.31835
-5.80473
-5.57371
-5.84596
-6.07018
-5.75875
-5.17031
-5.9786
-5.37491
-6.00748
-5.67162
-5.73969
-3.81404
-4.4353
-4.64067
-4.97807
-4.32013
-4.63879
-3.71365
-4.79978
-4.84249
-5.11253
-5.1741
-3.68021
-4.52607
-4.81138
-4.74729
-3.93148
-4.76392
-0.224145
-0.50022
-0.221239
-0.0422243
-0.155052
-0.25762
-0.335835
-0.380859
-0.0454959
-0.229884
-0.479052
-0.436148
-0.630734
-0.614841
-0.1677
-0.325371
-0.717925
-0.625972
-0.638993
-0.587752
-0.276638
-0.0795375
-0.707098
-0.0167813
-0.264474
-0.256421
-0.432285
-0.619367
-0.321345
-0.331346
-0.22845
-0.0292334
-0.057908
-0.286167
-0.541954
-0.241156
-0.257534
-0.589748
-0.0803553
-0.280729
-10.1565
-11.6216
-14.8988
-15.7645
-15.5868
-16.3963
-10.9042
-12.4571
-13.3452
-8.7923
-11.0632
-12.0024
-14.3372
-13.6049
-12.8958
-11.7706
-11.2972
0.0970801
0.10082
-0.291278
0.993076
0.351632
-0.522295
-0.78615
1.05349
0.76886
-0.183646
-10.1793
-10.2873
-10.6164
-10.8577
-10.1805
-10.1931
-10.2564
-10.7959
-10.7615
-10.4379
-10.5139
-10.2655
-10.319
-9.85533
-9.81978
-10.1393
-10.1245
-10.1825
-8.39716
-8.34226
-8.48537
-8.08191
-8.53719
-8.21548
-8.27565
-8.18974
-7.93867
-8.02529
-8.63449
-8.71508
-8.42915
-0.618292
-0.365397
-0.763746
-0.466809
-0.895396
-1.17156
-0.856209
-0.251629
-0.126942
-0.620915
-0.998496
-0.864645
-0.18618
-0.161271
-9.75711
-9.66962
-10.024
-9.80845
-9.63295
-9.59282
-9.88931
-9.84197
-9.82445
-9.72605
-9.73535
-9.96347
-9.68718
-9.47916
-10.1337
-18.9232
-18.1987
-17.684
-17.7373
-16.9781
-16.1959
-19.4243
-18.8882
-19.0646
-19.5363
-19.9199
-19.9007
-17.7241
-17.4841
-17.9151
-18.2372
-18.3708
-19.3812
31.0044
31.0004
31.2585
30.6012
30.7164
30.678
30.7867
30.6062
30.9292
30.906
-8.04154
-8.09432
-8.07831
-8.30532
-8.02066
-8.30445
-7.98933
-8.08268
-7.88523
-7.96259
-7.98938
-8.21352
-8.28163
-8.10139
-8.32175
-7.97238
-8.09323
-8.11089
-7.90044
-8.06682
-8.11992
-8.09316
-4.35968
-4.13446
-4.21612
-4.08743
-3.91648
-3.83094
-3.79717
-3.86454
-3.8196
-3.75503
-3.53143
-3.56176
-3.6892
-3.80528
-3.64417
-3.57691
-3.4987
-3.71097
32.678
33.6447
34.9173
33.6123
32.1752
34.6627
32.8466
33.7922
30.0997
31.9548
33.5303
30.7109
31.0441
29.8019
28.52
31.6258
29.427
28.2955
29.3713
32.8539
30.6965
29.748
27.1638
32.44
33.2527
34.5888
34.0546
38.487
37.647
34.9063
37.5218
30.755
30.0219
38.3346
39.3555
35.9523
38.6605
32.0516
32.1657
32.2248
32.0374
32.1401
32.0356
32.209
32.1653
32.0154
32.1388
31.9634
32.0017
32.2162
32.1578
32.159
32.2122
31.6061
27.4622
27.0412
29.4132
30.5165
32.3527
30.2585
30.3337
26.6658
25.9847
30.7289
28.5215
30.1108
27.3842
29.504
27.2154
26.9573
28.3022
28.8896
27.7101
28.397
29.548
29.3963
28.6462
27.9158
29.5592
29.9779
29.4838
24.1064
23.6457
25.8925
27.2531
15.3703
14.351
24.4563
24.289
15.0914
17.3036
19.8821
19.772
21.4972
18.9849
16.5123
14.4178
29.8671
29.0232
29.3832
29.8969
29.0985
30.4219
30.0188
29.2209
29.2408
32.0912
31.6586
31.342
30.7901
29.6661
30.7995
30.236
31.3004
30.6859
30.0274
31.5801
9.53593
11.3615
6.03489
3.03335
4.24178
7.13501
14.5217
6.14763
10.0533
10.0067
3.66339
8.73626
9.45089
6.32327
9.34702
16.0337
16.0956
14.5489
12.5405
10.8844
19.9206
17.0325
17.0679
14.2439
18.2073
18.3376
18.3297
15.6517
14.2093
15.2882
15.4187
16.1863
16.5313
31.3928
31.4351
31.2555
31.1497
31.8023
31.7721
31.3611
31.2034
31.9495
31.9617
31.4134
31.6941
31.944
31.9121
31.8118
-9.34416
-9.08519
-9.50909
-9.50352
-9.94764
-8.76649
-8.57668
-10.4692
-10.1379
33.6159
32.7421
31.7298
31.6704
32.4163
31.7832
34.0222
31.483
35.2438
33.7962
31.5843
33.442
34.0848
34.4551
34.9149
30.6935
31.0003
32.7831
34.9594
33.6288
31.1904
32.0685
5.79274
6.5038
5.79798
3.91807
4.93109
5.8204
2.63119
3.88845
4.20172
2.05019
3.26875
1.3322
2.10306
0.976691
0.521483
1.40237
2.64272
4.21034
0.210276
3.09426
30.1969
28.4933
33.2546
28.6817
30.5888
36.975
34.2198
30.4136
34.147
29.7851
32.254
38.1459
35.9763
36.6887
40.0963
33.415
32.6421
30.9209
35.3987
29.3848
32.5748
30.2681
34.2157
38.6161
39.5153
37.6503
-9.25938
-10.1666
-9.99029
-9.32955
-9.54555
-10.2708
-9.64883
-9.32379
-10.7932
-9.37674
-9.67261
-10.13
-9.61792
-9.09209
-9.03513
-9.56251
-9.44981
-10.1075
-9.42469
-8.95011
-8.93424
-9.04231
-9.0857
-9.6772
-9.17544
-9.61182
-5.86063
-5.58093
-6.31222
-6.81026
-5.75717
-5.99664
-5.70474
-4.61351
-6.52783
-3.8967
-6.44951
-5.24828
-4.77519
-5.46146
-6.40707
-6.38953
-5.8506
-5.5322
11.8599
11.3461
7.85994
9.91228
8.52759
6.54489
3.23695
8.01699
8.29336
5.82755
0.872545
4.68202
6.10241
27.4984
28.2865
28.6304
27.2532
28.9181
28.6963
29.0803
28.2071
28.3431
27.32
27.5151
29.4075
28.7663
-10.9567
-10.7692
-11.6075
-11.0133
-11.0431
-11.5665
-12.6701
-12.2275
-13.5862
-11.737
-11.8616
-11.5414
-12.8127
-10.9814
-9.71373
-9.54868
-9.92504
-10.236
-10.6554
-10.7574
-10.992
-9.80448
-10.0184
-10.2443
-9.95015
-9.72602
-9.98866
-9.8905
-9.60862
-9.3332
-9.62242
-9.66696
-9.83857
-9.38489
-9.19529
-9.23162
-9.16657
-9.50196
-9.66043
-9.7919
-9.81195
-9.41683
-9.3716
-9.49369
-8.28652
-7.93979
-7.93369
-7.79185
-7.8773
-7.77135
-7.76898
-8.13356
-7.85126
-7.74942
-7.97215
-7.96355
-7.9203
-8.47415
-4.52469
-5.61915
-5.76334
-4.5369
-5.14336
-5.70119
-6.28838
-4.50448
-4.47878
-5.08113
-5.16184
24.9716
26.593
25.6723
26.8007
26.0466
26.9661
26.0645
25.296
26.3998
25.5101
26.9278
24.6719
26.2264
34.9339
37.8086
40.0947
48.4529
46.2183
34.7006
51.8182
51.0218
38.0986
43.8264
36.322
38.562
46.7104
50.6448
53.4644
41.8688
43.7257
40.3109
50.1073
48.0699
46.274
43.2638
35.8272
35.8203
35.809
34.5095
34.2128
32.9409
33.3422
33.8993
33.1272
32.1532
32.239
21.8821
21.2155
20.8911
20.49
23.0245
22.5118
20.7506
22.2041
21.3774
20.438
19.6369
19.9261
21.6977
23.1146
23.2968
20.4501
19.8929
22.2567
19.318
33.5295
33.8205
33.6966
33.6894
34.4349
34.2685
34.05
33.8706
33.8686
34.272
35.0346
34.7301
35.1673
-6.76024
-2.67101
-0.304617
-4.20368
-2.11196
1.42378
1.21933
2.04537
2.7434
-1.87773
0.469124
-6.86479
-10.1162
-1.82819
1.54534
-4.8705
-2.65562
-10.6359
-5.87116
-11.4342
-4.46807
-8.80671
-8.78219
-8.72143
-8.87861
-8.58955
-8.68209
-8.91799
-9.20407
-8.72395
-8.53987
-9.08053
-8.91151
-8.65823
-8.63824
-8.6446
-8.80654
-8.55076
-8.62179
-10.975
-12.4493
-9.87972
-9.79841
-9.70354
-11.5192
-10.5134
-10.2979
-9.91404
-10.4093
-12.0522
-13.987
-12.0147
-11.8748
-9.84416
-7.94128
-9.4498
-8.92775
-8.37466
-9.97926
-12.0165
-9.27758
-7.73962
-8.6317
-7.97993
-9.86169
-8.70704
-3.10629
-3.46319
-3.70023
-3.62581
-3.92754
-12.5232
-14.7379
-13.1705
-14.6512
-19.0824
-12.5738
-16.444
-19.8269
-19.3567
-23.6757
-25.0844
-21.4541
-20.8236
-21.6714
-16.7511
-1.43642
-1.97981
-1.6427
-2.70648
-2.61231
-2.42211
-2.72861
-2.06996
-2.61072
-1.86447
-1.32062
-2.50481
-2.3305
-1.90866
-0.882736
-1.66163
-2.66597
-2.00267
18.3003
16.3711
12.5468
19.4395
7.02246
-3.28985
18.597
9.03006
17.5565
11.6127
13.1148
-16.2505
-7.8318
-26.2007
7.32974
6.88496
3.66055
-5.45902
1.03755
5.68938
-17.9212
-17.4939
-17.5783
-16.0679
-16.4506
-15.3164
-15.1902
-14.9941
-16.3857
-16.6061
-14.6042
-15.2687
-15.7734
-14.8672
-11.6256
-9.85269
-10.7216
-12.5582
-7.95843
-8.70155
-10.2216
-12.5627
-9.97252
-9.62514
-12.4895
-11.2428
-7.18892
-7.92763
-7.11533
-7.73834
-7.79939
-8.1243
-5.7509
-6.82882
-5.90948
-8.6448
-12.1493
-7.3914
-13.5664
-11.8616
-13.6792
-13.127
-2.85584
-3.54198
-3.18356
-5.29287
-7.75303
-8.41513
-10.1555
-10.3657
-4.55151
-7.68439
-4.97163
-5.17599
-0.982142
-2.62472
-2.95669
-2.75305
0.881485
0.584825
-0.387205
2.65228
2.69788
-0.921218
-3.24536
-0.439319
0.68568
2.36316
2.9465
-1.655
0.743636
0.461763
-1.03571
0.112239
13.1873
13.8102
10.8936
11.3254
13.8608
12.032
11.5465
12.1401
12.6504
12.1398
11.0849
11.7089
11.8318
10.889
13.7211
-8.32193
-5.0507
-5.99678
-7.45735
-8.77288
-7.78196
-5.17968
-8.14204
-5.74442
-5.38895
-6.13613
-6.08705
-6.13344
-6.55211
-6.52687
-5.77929
-6.41771
-6.56982
-5.9838
-6.72819
-7.42881
-7.02572
-5.82977
-5.91009
-7.09806
-6.95505
-7.09895
-6.21007
-6.84736
-5.75134
-6.24741
-5.35941
-6.64937
-6.26173
-6.78585
-6.06351
-5.79833
-6.41252
-8.54722
-8.30306
-8.81921
-8.58587
-8.40027
-8.81262
-9.40326
-10.7123
-10.0571
-9.43654
-9.07114
-9.75463
-9.69122
-10.5101
-10.0088
-9.23342
-9.66858
-9.97926
-1.49544
-1.32068
-1.32212
-1.47545
-1.63229
-1.6702
-1.28847
-1.31925
-1.63256
-1.68439
-1.49879
-1.79327
-2.15124
-2.18338
-1.38311
-1.84116
-1.65542
-1.50028
-2.17624
-2.04914
-1.67348
-1.44926
34.2732
33.9174
34.3946
34.0256
33.4553
34.1242
34.6391
33.524
33.6521
33.5493
32.9759
32.674
32.8958
33.894
33.3987
33.1512
-16.4462
-15.5755
-15.526
-16.2636
-16.6864
-16.2381
-14.0659
-14.4175
-13.2903
-15.7456
-14.1835
-13.8544
-15.3984
-13.6563
-16.3348
-14.9393
-15.7448
-17.2001
-4.4575
-4.44262
-3.98401
-3.76805
-4.30769
-4.21359
-4.42222
-3.96122
-3.98729
-3.67148
-4.62395
-4.65583
-4.18178
-4.67191
-4.16136
-4.60399
10.0781
10.81
12.5382
10.9445
9.59718
11.8549
10.2833
12.3124
12.8219
11.0263
11.5375
11.139
10.9074
12.5308
10.3818
9.0834
10.424
8.83254
9.2487
10.2823
6.01369
4.23446
1.57798
1.31023
-0.0931629
-0.19745
3.79187
-1.32804
9.59997
8.3614
-2.97389
3.0937
7.97706
6.53279
0.118086
3.77127
-11.7515
-11.6173
-11.1171
-10.8015
-10.8146
-10.8443
-10.7261
-10.7541
-10.5008
-9.64865
-9.62904
-9.95342
-3.55864
-3.44763
-3.64187
-3.16854
-3.3407
-3.5649
-3.67219
-3.75601
-3.10127
-3.2077
-3.30989
-3.22746
-3.79141
-3.36081
-3.09331
-3.19154
-3.51072
-8.37313
-8.57016
-8.1464
-8.16595
-8.22527
-8.63428
-8.56843
-8.18409
-8.51993
-8.19968
-8.18927
-8.3463
-8.6561
-8.93302
-8.25154
-8.53845
-8.97809
-8.16986
-4.53802
-6.39112
-5.63196
-4.88719
-6.41934
-6.12499
-4.28119
-4.86714
-6.45233
-3.5236
-3.33335
-4.41991
-3.74905
-4.49134
-3.55632
-3.8659
-4.21918
-4.54221
-5.63536
-5.05325
-6.52443
-6.42506
-3.65027
-3.81176
-5.48883
-5.1892
-4.12372
-4.56501
-6.04428
-5.93605
-4.65176
-4.40132
15.1608
14.8241
9.31467
12.1825
14.0742
14.8901
14.7371
13.4194
10.5091
13.4085
10.2522
12.799
12.6678
11.2024
34.6171
34.2439
33.134
33.3404
33.3587
33.7059
34.3679
34.0709
33.0445
33.2625
33.1316
33.831
33.6473
34.1968
-1.45856
-1.34349
-1.83375
-1.80091
-1.67331
-1.87855
-1.57244
-1.74378
-1.52416
-1.91256
-2.06533
-1.98423
-1.47365
-1.61562
-1.96035
5.50338
5.96558
8.68821
8.71848
5.41871
6.61198
6.6804
7.21134
8.43208
8.70602
4.56863
4.84237
5.35986
5.99927
7.28199
5.80897
6.63703
-6.896
-6.00446
-5.78512
-5.86249
-8.58776
-7.26732
-5.84347
-7.00819
-7.43904
-8.53287
-6.44857
-7.64543
-7.28399
-7.8086
-6.18312
-5.94518
-6.83393
-8.55476
-7.71525
-6.4479
-7.62798
-5.92762
-8.31585
-7.55068
-7.62263
-8.09808
-9.34135
-9.85885
-8.35427
-8.18927
-8.1111
-9.41191
-8.94515
-9.15112
-8.76014
-9.44947
-8.64683
-6.52936
-6.59062
-6.49679
-6.58304
-6.32562
-6.36008
-6.19987
-6.34037
-6.20184
-5.89324
-6.06563
-6.12813
-6.07643
-6.392
-5.95705
-6.052
-8.38196
-8.43627
-8.54691
-8.59685
-7.90174
-8.5683
-7.75409
-8.55366
-8.45833
-8.2923
-7.93702
-7.80405
-7.09805
-7.48863
-7.21048
-7.93547
-8.02453
-7.97008
13.7225
13.744
12.7109
12.367
9.56679
7.75743
14.7524
13.9271
6.94255
14.9283
12.438
11.0131
8.42736
11.1625
13.3191
13.9773
12.6555
8.7512
10.0127
9.60041
7.73589
7.72597
8.998
9.6795
8.4202
11.2741
11.1234
11.2702
9.64385
11.0181
10.1728
8.72543
28.2335
27.607
26.9119
27.9487
29.182
27.8572
29.3916
29.4166
27.9553
27.2062
26.2955
27.8517
26.7081
30.5392
29.5275
-4.61037
-4.33177
-4.10656
-3.53563
-4.6373
-4.1474
-3.55715
-3.37464
-3.99418
-3.706
-4.15122
-3.26935
-3.51246
-2.85731
-3.00274
-3.64364
-7.32072
-7.2715
-7.94298
-7.06584
-7.21956
-7.12534
-5.43965
-7.0394
-7.08304
-7.45532
-5.19044
-5.77161
-6.42606
-25.6907
-19.2145
-17.5083
-11.6959
-25.6653
-31.0882
-6.93931
-14.4232
-11.0302
-16.602
-18.0822
-22.8003
-20.1927
28.0514
26.9683
30.8368
28.2155
29.5549
31.1042
29.0807
26.4272
24.2666
25.5407
28.156
29.6594
28.6541
20.2928
22.2136
28.5298
28.0695
21.9481
20.4122
23.0009
9.10527
8.97336
8.77312
7.87557
8.85643
8.23352
7.91907
8.59015
8.89785
8.84693
8.40061
9.19386
8.9804
8.55058
-2.64208
-2.2033
-2.36386
-2.60168
-2.2205
-2.68652
-2.85218
-2.88777
-2.59166
-2.71703
-2.90893
-3.0241
-2.84074
-2.20123
-2.29644
-2.09073
-2.07176
-2.53454
-9.27786
-9.15708
-9.29265
-9.47271
-10.3023
-10.2028
-9.19282
-9.87493
-9.36532
-9.98144
-8.88779
-9.638
-10.3079
-8.37575
-9.15479
-8.78311
-9.68544
-9.85916
-9.7674
-9.31873
-3.60702
-3.1667
-2.94887
-3.35043
-3.3498
-8.66225
-8.25647
-9.68451
-9.16615
-8.43005
-9.16681
-8.35627
-8.68727
-8.72297
-9.11242
-8.18097
-8.73872
-8.32552
-8.13656
-11.6402
-11.3187
-11.6434
-11.2115
-11.5618
-10.6794
-12.0867
-11.8982
-11.4059
-12.0718
-11.8122
12.599
12.9501
12.9722
12.6568
12.0853
11.9484
12.3885
12.8368
13.3949
13.3875
12.7969
31.5002
32.1272
30.555
30.4598
31.3234
32.5652
33.1275
31.5293
31.3833
33.8033
32.6822
35.4161
31.501
30.8299
32.6649
13.8005
13.0206
10.078
11.4459
10.8993
12.2784
10.5957
9.15411
9.35063
10.6472
12.3204
11.3889
12.7618
9.52361
10.0016
11.4449
7.87764
7.9017
9.9338
7.44919
6.16491
24.3829
25.3888
24.8139
23.7967
24.2932
23.6394
21.0477
20.0818
18.4514
19.0195
19.3637
19.1988
22.1384
22.1508
20.1571
20.7742
23.0635
39.5355
41.6915
42.1161
39.5734
38.7012
40.418
39.6455
40.3491
41.6812
38.9414
42.6147
39.4197
38.4472
45.11
43.7026
43.5871
40.2561
43.2968
44.265
40.699
-0.252559
0.483034
4.18952
3.0488
9.56571
0.28868
1.78789
7.00778
5.06601
7.53968
12.7994
12.1985
6.94232
10.4296
-10.0228
-9.95333
-9.82569
-9.71997
-9.93373
-10.0217
-9.77791
-9.64897
-9.77683
-9.55949
-9.64208
-9.51679
-9.52158
-9.4559
-7.87161
-7.56789
-7.48242
-7.82393
-7.40029
-7.80193
-7.4397
-7.88361
-7.62181
-7.7669
-7.64426
-0.1599
-0.136074
-0.460352
-0.49066
-0.881499
-0.181104
0.02375
-0.469207
-0.268254
-0.51632
0.0470431
0.0507417
-0.194738
0.0355937
-0.755616
-5.88922
-5.98744
-5.98217
-6.11132
-5.9765
-6.19352
-6.33584
-6.05844
-6.2343
-6.76001
-6.79765
-6.62751
-6.63221
-6.22984
-6.03221
-6.06524
-6.21445
-6.08718
-8.91353
-12.007
-8.57189
-10.0183
-8.73547
-11.7993
-10.2453
-9.25495
-7.80938
-8.8514
-10.7524
-7.65782
-9.63688
-10.3913
-9.62571
-10.7771
-9.17638
-9.74675
-6.69097
-9.71458
-8.90717
40.3852
44.0467
42.6841
44.5082
40.3022
44.4795
45.5945
42.9201
46.7908
48.5438
45.0179
36.9715
37.743
42.3094
37.5917
3.34242
3.72355
1.72933
2.12754
4.02213
2.20649
4.52392
2.87448
2.76795
2.2455
22.0861
22.041
22.7008
22.7092
21.2666
22.5191
23.101
22.9758
23.0145
22.9385
20.4387
20.976
20.7211
21.2601
20.9185
-17.3975
-16.9959
-18.9076
-18.746
-19.1972
-18.3532
-18.1885
-20.165