/*--------------------------------*- C++ -*----------------------------------*\
  =========                 |
  \\      /  F ield         | OpenFOAM: The Open Source CFD Toolbox
   \\    /   O peration     | Website:  https://openfoam.org
    \\  /    A nd           | Version:  10
     \\/     M anipulation  |
\*---------------------------------------------------------------------------*/
FoamFile
{
    format      ascii;
    class       surfaceScalarField;
    location    "12";
    object      phi;
}
// * * * * * * * * * * * * * * * * * * * * * * * * * * * * * * * * * * * * * //

dimensions      [0 3 -1 0 0 0 0];

internalField   nonuniform List<scalar> 
146459
(
-2.04913
2.65575
-1.53192
0.925298
0.779965
-1.32688
-1.50222
-3.16002
4.96322
0.852552
-1.1824
-1.19766
-1.94479
-1.02146
1.6166
1.34965
-0.189208
-1.75558
1.72113
-2.31148
-0.736531
6.33203
3.20869
-8.1428
-1.39792
-1.8859
3.30547
4.91246
0.140393
-2.21962
0.893443
0.304711
-2.54584
-1.42935
2.70449
1.49442
-25.399
47.1748
-24.4311
2.65526
-27.6853
20.1169
-17.8306
28.0146
10.5784
-16.7889
-21.8041
54.6773
10.2395
-36.9022
-13.8488
-23.098
9.26143
21.0987
-6.67328
-3.84695
52.1969
23.5791
-19.4785
-1.04353
-28.1182
-34.8014
39.8217
-10.411
12.3218
-30.029
-38.2736
8.3841
41.1335
-9.45181
-19.3599
9.91429
6.23465
24.9845
9.5687
23.3644
-3.87225
-29.0609
0.375493
23.4756
-14.2824
16.5109
6.94459
-0.0910485
-9.96729
9.49691
16.9813
19.6986
-17.7381
4.98407
-11.3422
22.2869
8.75395
28.7708
-17.1811
31.848
-43.4377
15.1669
3.63669
-9.37276
23.4607
-13.7124
-30.4262
16.9892
-11.2516
-3.73578
9.38271
-25.3267
23.76
16.7336
-9.92442
16.4457
34.3744
3.90819
-14.5226
10.1239
9.60095
-3.40013
-4.14156
0.547245
6.99444
-6.26468
-3.74656
6.61111
7.28272
-6.81641
-4.60787
0.677842
4.28814
2.31675
7.83127
3.50794
-10.6614
-18.2193
-17.5544
20.4447
15.329
-17.8741
21.9217
-4.15403
0.106498
-5.34087
-0.270194
-12.2631
-15.6939
-1.55641
-0.968963
-11.8064
-5.41311
10.8042
6.4153
-3.93194
17.4691
8.38448
-16.0063
-3.07784
14.9301
-15.1052
-6.24198
-24.1211
4.43999
15.7491
-16.8068
-7.58446
3.07118
-17.2968
-3.32879
-8.73518
10.313
-11.2861
-21.8462
-11.1445
-8.36261
-2.29282
18.0801
-7.42466
-8.15102
-0.748787
0.537201
-11.6891
21.5987
-12.2024
-8.44257
0.696484
-0.404932
9.33758
-1.08193
1.16861
-9.42426
-5.41101
6.30602
3.13712
8.9771
-8.92494
-3.18927
-5.61207
8.74919
11.0231
0.416043
-12.5211
-0.797678
1.51298
8.2618
-0.351441
-11.3045
12.8246
1.28003
-9.78893
-13.8709
1.38408
-12.9423
0.007275
-1.14041
0.236922
0.896209
-0.929434
0.120243
0.816466
-0.447236
-0.535153
0.0529544
-0.097831
-0.205356
-0.837219
0.671669
-0.649257
-0.502929
-0.66301
1.40286
-0.873437
-0.0767279
1.87062
-0.111293
-0.387766
-1.37156
-0.165968
1.14598
0.890609
-0.704895
0.00377394
0.112046
-0.928234
-1.61671
-0.587764
1.54146
-0.896861
-0.925202
-0.0811092
-0.140583
-0.366072
-0.8425
-0.215179
-1.09139
0.409712
-0.743528
-4.17167
10.3089
6.79507
-12.9323
-1.95132
-17.2309
5.57455
13.6076
-16.3322
10.2092
-9.84
-23.723
-6.41546
16.0403
-9.62486
-12.26
13.7656
4.06897
7.86714
-24.0876
6.38043
-10.8083
9.01585
-6.4173
2.46318
-5.06173
-0.616202
5.58673
4.04532
0.137582
-1.26041
-5.29447
7.95839
-1.61446
-6.20636
12.1909
4.96784
-9.2003
6.44633
5.12832
-6.90961
9.37279
0.32763
6.91394
-8.50197
-9.55532
8.26849
13.2407
-8.27282
0.00432794
-6.54123
0.868
-6.30112
11.9743
-8.99418
-4.62194
7.07489
6.04754
-7.00345
9.86357
-8.90766
0.150284
5.89726
-7.50455
-7.40569
15.7782
-0.302132
-9.27542
0.583378
-6.60325
-4.182
-10.657
7.33445
-10.7617
1.9578
-0.0513711
-8.67439
-2.03598
-7.63625
-1.69054
-4.54944
6.45297
-9.53978
5.49624
-17.0491
10.7686
-0.341134
-0.563882
9.26015
9.99973
-13.1779
-0.998409
4.41934
12.9068
-9.90997
-7.41615
10.6846
0.44072
-6.70599
4.43465
19.1567
6.52647
-12.0481
10.6589
-5.13726
-9.95256
20.9137
6.21839
4.92632
-23.1547
12.01
4.72411
-10.5538
5.22845
-10.2121
16.8793
7.03778
-15.5046
-8.41249
-5.66094
16.2915
6.24868
12.2188
-3.93212
-13.9476
9.45864
-0.400928
-2.01993
6.79836
18.9518
-2.2386
10.8845
-9.04684
11.0842
3.22072
-2.0861
24.0034
-6.12083
-6.5333
-7.79139
-2.08654
16.4112
-12.9021
-9.02082
15.3896
0.0285442
-7.81993
-12.8963
0.0227989
-1.15789
-24.5455
16.6826
6.56505
-19.6433
11.9203
-8.06514
12.5437
-20.4878
-10.1451
22.5677
12.5772
-27.8783
-5.18664
2.43211
-3.13668
-18.6886
-2.72019
-12.4095
-3.62356
-5.38782
-24.5775
-13.7544
-10.8921
-6.90517
11.7148
-0.942376
-3.30019
-7.47226
-5.34215
0.127242
5.01778
0.197132
5.55765
-13.4199
2.52008
-9.41861
8.55891
0.986939
8.99918
-12.8601
-1.48252
4.03331
9.16403
-13.4979
4.69511
7.32028
-0.949618
-2.42969
-10.1186
7.43958
-3.36418
11.1964
-3.14684
7.01872
12.7366
1.29353
10.1794
13.0074
0.0955474
-6.22792
8.26633
-2.13396
-8.46011
11.3011
-2.7455
1.32479
-16.0128
-15.2417
-1.37284
13.7167
2.8978
11.9168
-25.8337
10.544
16.8636
7.76244
-16.3597
-7.56645
8.53412
15.896
0.195992
1.19423
9.21017
0.89675
11.6558
3.25513
-0.0294076
17.7737
-10.7399
22.3664
-5.82584
5.25156
10.3898
-9.81557
-8.047
4.56531
-2.34415
-16.9676
5.52486
3.39575
-6.14095
-9.38392
20.7764
5.92115
-7.49679
-4.06109
-5.32283
-3.86029
1.66447
-16.8024
18.9983
20.6109
-21.3303
-3.14083
3.9934
13.2073
3.41015
16.3935
-1.72937
-12.9997
5.35465
18.8849
-7.84596
5.82876
11.8542
-13.6896
15.4226
3.94747
-19.2384
-0.131751
-2.10795
17.5306
-13.6133
15.8314
-1.3895
20.7423
-13.9982
19.3049
-14.8656
0.814973
6.1024
9.65753
-16.5749
4.44534
6.77898
-10.4093
8.24103
7.13488
-10.9306
-2.91227
17.7328
-6.57953
11.5275
-8.33733
0.0530828
6.72589
9.71062
7.57714
-12.3655
9.40063
-4.61227
-2.54047
15.5552
-5.43764
0.161197
6.97368
0.982967
-1.82102
10.6936
6.88709
15.0402
11.9063
10.1053
-4.91984
-17.0917
-4.54281
8.82505
7.62403
5.56246
-12.2446
0.675916
18.1027
-6.53399
-6.811
3.39146
-6.33417
11.8966
-16.6197
-4.85717
12.3714
9.10549
11.1913
-6.76571
-21.0453
15.7256
-9.08558
-15.4163
8.77628
1.63505
7.8706
6.21998
-6.04004
18.6126
-20.7711
7.96637
7.16166
2.46715
-17.0822
7.45335
6.47716
11.5317
-10.8472
-5.87377
-17.4629
6.03666
17.3
-20.9915
3.6338
11.484
-4.87294
-6.08708
-10.0315
-14.7949
-7.54101
5.61638
7.01235
-10.1616
12.0935
11.5684
-0.0430883
0.00637985
1.37665
-5.08074
-6.66084
10.3649
-8.86341
16.2767
-11.6387
10.1918
12.4975
-11.5722
-3.98232
6.68736
-10.6432
-1.45039
2.30913
-5.08514
-11.2772
9.86009
6.50228
-10.0898
5.00462
9.17849
-2.30595
8.80382
-15.6764
-0.911275
7.47916
-16.172
6.38685
7.04351
1.93812
-1.50247
-0.647516
-7.34758
0.157592
7.8375
-9.02079
-1.33247
9.70575
14.0246
0.501801
-3.47635
-11.05
14.8354
-9.83156
-1.9716
-1.21534
-0.208152
-6.24631
0.349825
6.10463
-9.14296
8.93481
-4.14335
-6.93307
7.85591
3.22051
8.45097
-12.5943
-9.04106
-0.101898
12.6373
1.01169
0.555937
-14.2049
-0.0589345
12.6962
0.863041
-8.89241
9.05776
0.741821
-9.24364
9.43183
-0.43301
1.25111
-7.99173
0.494313
3.74988
-6.38687
-10.8267
7.93203
-13.0136
15.9082
-10.6349
-0.191761
-4.77948
17.7247
-5.01322
7.35418
-7.64315
-9.41584
9.70481
-3.81698
11.1712
6.1388
11.1731
-10.2235
-7.08835
-4.49611
8.31309
-5.37935
-10.5769
-3.16919
1.32864
7.17211
13.8867
-17.3222
-3.7366
-11.7206
14.1132
3.59969
-19.2025
-13.6516
-1.23817
-19.4789
9.42703
-0.937804
5.36029
-6.01486
1.59237
-9.02943
8.09162
-7.78466
0.314641
-5.12388
-5.78461
-2.00005
-8.14979
10.7523
2.33627
-22.118
3.5384
1.19901
-5.84277
0.0581684
-10.2222
6.71568
-2.1356
1.08684
-3.33913
-0.471471
-1.66413
2.90647
-1.17415
-4.16834
2.43603
1.6867
0.333038
0.886731
1.00578
0.513765
-2.69369
-0.513125
1.5189
-2.44453
2.59627
-0.664873
3.11397
-5.04473
1.04743
-1.63728
1.83612
2.39743
2.18572
-0.709028
-2.72674
-0.889629
1.14568
0.527699
-0.935434
-2.15083
2.55856
-0.397037
-0.017275
0.942011
-0.127927
0.0433979
0.141525
-0.0569954
-1.06939
1.50315
-0.561678
-1.88032
3.80784
-2.99692
-0.27235
-1.60797
-0.144923
1.707
-2.49751
1.04774
0.456561
-1.4609
-0.22768
0.878381
-0.184211
-0.188392
-6.22114
6.10937
-18.1856
18.2974
-22.0229
3.01696
12.7849
-2.43672
-10.6888
-8.89742
17.7293
-11.4249
-8.7411
11.3086
-5.98199
12.4027
-4.4958
14.6631
-4.05792
9.82975
10.5774
-2.52387
-19.4785
4.59542
-16.3848
-0.770232
-1.0306
-7.78594
-19.2876
12.3926
-6.78175
7.29042
-12.9013
12.6742
-1.05185
-2.25194
6.84736
-17.0916
-5.03847
8.68933
9.02339
-1.49551
-0.0292675
1.21734
0.307441
2.07399
-0.297563
-3.27194
2.04472
0.0951078
1.82624
-2.21891
-0.752281
-2.34991
-1.35017
4.45236
-0.545584
-1.27186
1.06516
-2.89549
0.53289
1.25513
-1.69291
0.478373
0.975465
0.850771
0.880426
-14.3481
13.6279
-14.1181
14.8382
2.53801
-3.68896
-13.1971
3.74218
11.7802
-20.5431
5.0207
6.05124
14.0049
-16.3139
-5.17717
7.71518
13.3759
-6.52375
-0.800956
-0.407127
0.498322
13.2847
0.0261351
13.9787
11.8064
13.5716
6.62919
-7.09016
-16.128
13.5115
9.70674
-12.3148
5.3774
-0.152712
-2.78223
-4.20826
-9.13755
-5.09579
-10.0013
8.09423
-8.04362
5.32679
-3.37938
14.0028
-12.3056
3.60982
-5.30704
-9.19676
15.8778
7.32176
-7.4383
-5.96671
-15.9279
-3.81596
10.7026
-7.09276
-10.5248
-4.5271
7.00825
-10.8821
-4.73842
-11.6199
-1.77602
-2.93099
-0.0167507
4.72375
5.43089
-2.32897
-0.628463
-2.47345
-3.43003
0.88003
1.58031
0.969689
-1.32155
4.73506
-3.41351
2.01069
-3.33224
-6.45436
0.756135
19.2008
-13.5025
4.28697
-11.2913
0.549942
-12.8944
-6.01102
19.6616
-10.5027
-5.29101
2.8993
13.8982
-10.8101
-15.3942
12.3062
15.4084
-7.52131
-23.8859
2.57308
1.36287
2.81982
-5.42021
1.23752
3.67559
-4.40932
2.09661
6.62888
-5.96375
-4.92301
4.25788
0.604323
5.56284
0.461719
0.520268
2.90387
0.724913
3.47094
1.17726
-5.17157
-1.4259
-3.00929
-0.22277
-0.477507
-3.87816
5.49455
-1.13889
-1.7423
1.9897
0.838653
0.22993
-6.24015
1.10963
-3.28027
-2.683
-6.54072
5.34557
-5.64458
1.21928
1.18259
-6.9164
-0.855318
-0.804868
-4.88053
-5.39027
-3.7044
4.08212
-7.88893
-5.19886
5.42116
7.66662
-0.814313
-2.37891
-4.6957
8.36621
-4.28255
-4.89797
-4.65068
5.03205
7.98484
8.42204
-4.2143
-8.49029
-0.493584
4.26495
9.79787
-3.55808
-8.61871
1.43282
3.16619
10.641
-0.187774
-7.62143
3.42345
-1.05736
-10.7784
-11.626
7.01052
2.88478
-6.37497
1.71195
5.36406
-7.82474
0.74873
-6.132
3.97528
3.86867
-14.5523
-0.367625
8.00579
6.91409
-5.2413
-0.883417
-8.42753
8.40339
-1.40291
-3.04426
-3.95623
-5.08556
7.35695
-10.1494
4.69626
-5.32877
-10.062
2.39649
-3.11322
6.08079
-2.65898
9.03075
8.5079
-4.27505
-5.63575
-1.95918
2.64234
-11.9327
3.95324
0.0574121
7.92203
-5.61398
-7.20212
9.30006
-1.47377
-6.89926
6.5514
-2.71532
-8.11113
4.20233
0.38989
-5.01399
1.72622
3.34519
-4.84837
-5.7796
2.81533
-9.03746
-15.1568
12.4863
15.3719
-12.7014
-2.42365
-17.4845
8.59574
11.3124
-26.5951
10.1533
14.0181
9.11203
-13.4222
-13.1744
-9.7862
-7.69683
0.503879
-12.3225
-1.08478
12.9034
-0.916555
11.2398
-9.81938
12.8626
-13.5646
-0.214543
-11.3397
10.1191
9.81635
0.591472
-1.73537
-14.0129
-16.0524
15.5808
10.6249
9.6792
-11.8616
15.9071
-12.8307
-1.06908
2.19091
-2.33623
-1.28989
17.738
-14.2571
-0.152641
-1.99363
1.96683
0.179444
-0.237029
0.0843877
-2.141
-1.41489
0.305422
3.25047
-2.37803
-8.49442
-2.35229
5.88354
4.96317
0.249976
-1.53429
-7.21011
3.31174
-2.22013
-3.46963
-0.0601525
1.957
-6.7486
3.89431
0.501996
-1.15517
-5.34346
0.277272
-0.492314
0.299429
-2.87153
-0.143368
2.41562
-4.24673
-0.367482
6.19087
3.38346
3.90772
8.44653
-15.3305
2.97625
8.65342
-11.9448
7.19911
-18.7764
-5.6937
11.4832
12.9869
-15.9431
0.103068
-2.93636
-6.46254
-12.2226
17.1718
1.51337
8.35338
-4.83752
-9.9784
7.78728
-7.49376
8.15302
-0.194958
16.6357
-9.38975
-1.52555
-1.02951
-16.3669
11.0821
8.65471
-24.5744
14.9654
-16.1059
7.53675
-14.8252
0.317496
17.8039
-2.73536
10.5117
-5.10543
12.3976
21.8
4.57261
3.90429
-7.11826
-5.40474
12.4526
5.47181
-8.24745
-9.67691
3.72245
4.87102
3.85908
8.69701
-3.31125
-1.48147
3.42063
8.44257
-1.24676
-3.73736
8.40475
-2.60206
4.24008
-5.05496
-12.9396
6.36864
7.54882
-9.547
5.72063
9.14085
-2.20332
-1.46573
6.9857
7.02618
2.90226
1.48137
6.71372
-10.2247
-2.63356
-0.906681
-17.5655
-13.0799
-4.05552
2.08367
23.5341
-21.5622
-17.4719
0.19363
13.2228
-15.478
-3.63833
1.64443
-1.8109
-12.8038
16.6984
-8.63139
7.01413
-7.41959
-11.5215
3.46309
11.2901
-4.53289
-14.476
7.71879
18.2949
3.13113
-10.1359
-7.68554
13.1766
7.71578
9.77924
-6.85075
-10.6443
15.018
-7.60911
0.306846
-19.5848
8.49259
3.40664
-6.6744
-14.2733
14.1345
-2.89359
-4.64691
-10.3818
-16.0305
-10.2765
6.64637
6.08379
-2.45363
7.7268
-12.9696
-5.03376
-10.398
13.3423
3.02934
-5.97361
11.5641
-16.5273
-5.43479
2.99924
0.0561493
8.50873
12.5522
3.78927
-13.9979
14.2927
6.35157
0.101785
-6.37291
7.63552
16.245
-17.7427
-6.13785
14.7568
-7.01955
12.0246
-2.91144
1.97309
10.7521
-0.172996
16.3609
-4.8876
4.77173
15.6611
15.4566
1.58802
12.4096
0.938639
16.5901
-1.86767
16.8194
-7.80001
-6.93381
2.57215
12.1617
-8.90477
-2.78468
3.88944
0.70826
-10.4691
0.856085
11.0354
-12.0145
1.68738
5.27118
-9.52961
1.47376
-0.389907
4.49151
5.61841
9.43489
-9.78212
-5.76306
13.9536
-5.61385
-2.96247
-0.953287
3.39968
-7.35925
-1.65428
2.5324
-9.60184
-1.55411
-7.92802
-3.96022
2.77072
-4.57356
-3.65547
2.38868
8.42684
-7.16005
3.12676
-3.65681
-3.12542
-2.12722
4.83032
-5.66557
-7.49776
3.14764
-5.92512
-12.1786
26.9929
-6.88284
-7.93143
5.14027
-16.3902
-0.928686
5.38146
22.3932
-22.6344
-0.555508
30.039
-6.45178
-23.0317
7.46441
13.8534
-34.5252
13.2074
21.9872
-17.1612
5.10424
19.7134
2.17522
20.6925
6.80496
-2.44809
18.3656
4.775
17.1908
2.34827
16.2532
21.2502
-8.22591
-8.73267
35.3242
25.2181
28.4208
-17.44
8.05596
-2.05652
-10.2566
4.25719
-10.4876
16.6443
1.89922
-12.457
4.33443
-1.35496
9.47751
-5.36089
-12.5209
19.6758
-1.79403
14.5342
-6.74659
-13.1485
-1.77006
3.84728
-10.9745
3.37519
5.54275
19.5745
-19.152
-10.6791
-9.59019
18.6771
-6.93791
4.52781
0.640043
-2.54194
-11.1426
-5.2775
-1.16915
-3.31767
-5.94806
-9.8863
-16.2812
8.6508
-1.95975
-7.42388
-12.175
-4.196
-7.02955
-2.82101
-10.7021
6.09926
-9.55895
4.05399
0.354682
1.67212
-7.18038
3.81273
7.42164
1.03054
0.819825
4.53013
-0.0783502
-1.63645
3.57254
1.31227
-3.22604
-0.885774
7.92455
-3.58495
1.38945
8.02032
-4.75953
-0.925231
-2.33556
2.8191
7.62033
-2.4191
-1.49269
6.87893
-1.16383
5.50586
-0.690221
-11.6122
-2.73486
15.0373
-8.53892
10.1155
-2.26677
-13.6579
6.34896
-2.40865
9.71759
-1.68063
0.14016
-6.99845
-2.28603
-11.0068
-10.0426
9.71825
-2.41053
-12.0417
-1.72831
11.599
2.17103
-5.76826
-19.9314
-3.64506
-0.0485579
-6.74003
5.9349
10.7751
-9.96997
-19.8965
-0.580974
13.7374
-6.98104
7.65892
-15.0068
14.3289
6.99662
-19.7459
-12.0758
-3.27898
11.7097
-5.90034
-6.33719
-10.9795
0.694015
14.0646
-4.28839
-10.4702
17.7894
-4.86636
-12.2291
-5.23804
16.2739
3.02875
16.2722
-3.72083
-3.3968
11.8349
-13.3045
2.43514
7.98538
-13.8173
-0.0161164
-12.6469
1.4477
11.2154
-7.15429
0.608602
6.52957
-2.09375
6.77438
7.16005
7.01843
7.20216
16.2318
8.16645
-10.0197
2.42286
-7.08442
-6.0176
8.64128
4.57848
-13.9249
-3.03375
10.941
-3.33556
22.1924
0.214595
-4.95777
-17.4492
13.9173
-1.35501
9.63001
5.16527
-11.4228
20.1749
-3.82099
17.5978
-8.11949
-5.65735
21.1387
-12.147
-12.8127
-22.5885
29.2951
-6.49201
-5.45659
-13.1656
-3.96629
-7.88594
-1.66084
14.7121
-13.4701
4.22917
-8.61005
9.68169
16.5262
5.87513
6.65348
-16.1226
8.52761
-5.42233
-19.0838
8.38354
2.27058
-19.8399
5.74001
-11.5889
0.47772
17.3945
-17.185
6.8682
10.7945
-16.9016
14.889
29.6363
-25.6449
-22.734
18.7426
-1.87824
15.9385
15.576
-4.23339
27.1889
-10.7576
-12.1979
12.3736
-24.0435
29.5845
-17.9146
-16.5882
3.31695
15.2938
-32.0555
14.8835
7.01812
10.3543
-41.416
-20.0457
10.4756
-14.2445
25.3049
-0.515881
14.0188
16.2187
-29.7216
-12.1672
9.69613
28.9941
-26.4425
7.80267
-26.8727
12.1123
-10.0458
45.2366
-27.921
-2.72432
-14.5912
24.8751
30.2079
-9.84647
-21.171
28.0684
-20.0195
13.1221
-36.9979
-12.0941
46.6334
6.31012
-5.51762
-30.6108
-0.86945
12.8073
8.80878
-41.6356
-19.5947
-20.309
25.3077
14.596
-15.535
2.98432
-7.04399
24.2039
-30.4085
25.4973
-19.2927
26.3543
10.6569
-4.11933
-26.9367
25.5384
-2.06231
-34.3938
6.04757
-24.6149
0.421917
3.88398
-23.0182
-17.1318
21.5273
4.39192
31.5101
16.3715
-29.1998
3.94373
9.11778
-1.59982
-11.4617
-11.9593
11.4749
4.42812
5.74237
-12.814
-4.88769
-8.74408
14.7048
2.1324
-8.09312
11.2793
-16.5608
-3.46256
-4.50481
-2.41767
18.3974
-3.69513
8.3081
-1.08998
5.61831
10.1765
6.49414
11.3805
-3.5057
14.5811
-6.60036
-0.62742
2.80268
4.42511
-4.01947
0.291402
-2.87229
2.23218
-1.57589
-4.67577
0.710092
0.894667
-0.453999
2.25043
-1.08634
2.30445
-1.07805
-1.6804
-1.15557
1.30397
2.10203
1.32257
-0.173693
-4.90288
1.85552
5.85003
-2.69011
-1.92137
0.476057
1.54788
-3.59982
2.50952
-1.3265
0.247145
-1.43017
0.59636
0.714606
1.19855
1.53407
-2.13607
-1.59049
1.10616
1.08069
-1.38291
1.00338
1.42535
1.50504
-2.64727
-3.79338
2.36839
2.1396
-2.0412
4.51638
-0.29246
-9.71381
-10.3104
24.1546
-4.13031
-15.2182
-18.1506
23.655
5.78136
7.92704
-0.20722
-13.5012
-0.316467
-9.12038
6.49034
-8.87373
-12.6356
1.95309
25.2325
-14.55
-0.883919
12.4029
-6.30523
16.3969
-10.4081
8.50143
-15.0139
8.19961
-16.6753
7.59174
-6.10843
-7.3827
15.4442
-9.24019
11.3314
7.93614
5.47033
2.99039
-4.27234
-5.91259
7.31593
-16.7555
0.199385
7.86936
-12.5264
5.7858
-3.98998
-1.8484
0.052581
-1.45408
8.36106
-1.12117
-1.08632
2.55872
-5.8716
4.3992
1.34783
-4.43189
1.99774
7.2285
-8.03363
-3.18485
8.33314
3.80698
-2.56288
-4.69356
3.44947
2.16812
2.98668
-0.940696
-1.24176
-3.68914
-3.36331
-2.00928
-6.22962
0.303436
11.7327
8.26391
-4.38358
-15.613
-1.4797
6.00953
7.20285
3.61069
3.17352
8.6918
-1.70864
-3.37247
2.92392
5.69367
-13.0012
-12.5537
3.33522
17.9103
-1.65029
0.34768
-11.2511
4.84521
-8.14346
6.22216
9.46075
3.29146
-7.05854
4.5386
10.9317
10.3395
-10.8664
-1.12337
18.2133
-2.72972
18.8727
14.8823
0.484085
-34.2391
-0.0442811
26.252
-7.33509
-41.3364
10.1302
15.9257
15.2805
2.36371
-14.6089
-29.0912
42.7085
-12.2392
-28.1056
28.4336
24.4051
42.7463
-40.1032
2.69547
28.5411
11.5097
-11.9392
16.4454
-4.55049
9.64568
-21.1008
-28.2056
21.7748
9.1263
14.0603
-16.0138
18.1792
-23.1424
13.9679
43.0068
11.9615
11.5442
-5.32658
20.7324
7.15476
-17.4497
8.95061
30.2738
-9.39322
6.00381
-12.9934
11.178
22.5479
-3.821
2.37186
3.23123
34.0964
4.81671
6.81339
-27.0767
15.4466
10.6445
26.6356
-32.4634
0.407274
19.8029
-13.3968
31.9226
-20.8709
36.7351
-16.0346
5.93517
46.4101
3.03549
-21.9466
-27.499
22.1277
17.9844
-20.3092
23.5825
31.9153
-23.5751
45.9573
-0.247127
1.2112
29.9845
15.2144
-44.9919
15.3162
30.887
-18.2954
18.0037
-44.7002
33.5596
-12.5397
-3.24765
15.0864
20.0766
18.7137
23.9959
12.4811
-4.72626
25.8047
10.9233
20.2715
-18.4598
31.9934
1.78258
19.0398
-0.600041
15.6663
0.193096
16.6504
-4.09801
-12.7455
-4.89471
20.7867
-15.6989
-3.50768
21.3537
-22.7408
12.9755
0.846091
-17.3293
6.15978
13.3061
-2.81542
21.6725
5.27391
-4.62348
13.9976
3.60139
18.7105
-1.9803
12.6556
-15.9075
-17.6339
-13.8923
10.5842
20.942
2.93916
-19.5972
-0.975822
16.3517
3.74856
-0.879091
13.4823
14.8288
0.963766
5.87995
16.2827
-23.2243
-1.15802
3.54833
0.564475
13.7683
2.95191
10.9978
13.4273
6.24698
9.96311
2.87648
-6.88836
10.4047
16.5021
-5.37599
8.41277
-8.21366
5.17688
-0.166812
-3.7281
-1.48108
-10.0201
8.56663
-7.89426
9.34777
-3.24563
-12.4964
5.72187
-6.3763
10.8161
4.1268
-4.8176
-1.72551
-6.88184
1.98855
-7.74766
12.6409
5.03367
-1.09937
-2.417
9.43921
-6.67587
12.6716
-12.8983
5.82601
-1.14139
-9.74586
-6.88052
-9.46605
1.40281
6.80429
-0.570754
-0.645131
-5.58841
17.7348
-18.6782
-5.73296
4.88309
-0.0881134
-6.2156
8.51756
-6.63085
-7.42149
5.53478
3.90362
1.92465
2.6893
-8.80428
-10.811
6.88855
12.7268
1.69611
4.53646
-12.8634
7.55923
-14.6674
-9.52965
6.08488
-6.66059
10.1053
5.77045
-7.74086
-7.71489
3.15537
1.85548
2.70403
9.14312
-12.3216
7.09523
4.8709
-2.823
4.82909
5.42151
2.04256
5.58337
-8.95004
10.263
3.51617
-0.175512
-5.22634
-3.08482
16.3781
-8.0669
-26.5424
1.07485
14.0821
11.3854
-1.64933
-26.2779
1.38479
-16.0544
-2.53231
13.3604
7.92419
-0.853097
-23.1255
-20.5764
9.92091
11.7303
0.115081
-22.3408
-5.43386
12.2699
-17.9263
9.96013
-19.2364
1.4252
18.1326
2.31704
0.910964
-21.3606
7.78087
11.8646
-1.51279
-6.97351
-4.5284
6.2824
5.21952
-13.7456
-8.56388
15.336
-12.8441
13.572
7.05293
2.1098
-12.6369
-13.2198
11.3388
2.22958
-14.5385
-4.50212
18.4663
-0.39215
-3.38031
-17.9829
16.8348
-24.3113
2.91735
18.0136
-2.19037
-25.9864
3.86552
-20.8669
0.693612
-16.6403
15.0555
3.45685
-22.0941
0.210157
-22.7397
-14.3204
-17.2472
4.03004
13.7276
-0.510422
-8.21953
5.29439
-14.3221
-1.52854
6.48521
4.85561
-9.81229
12.2431
5.83086
-19.6025
1.22772
10.8899
0.125443
7.11346
0.599465
18.5828
9.16237
-15.3749
-12.3703
11.947
7.72286
-1.08701
-16.6117
10.8048
17.7539
-5.29572
-2.15364
9.1848
-12.5487
11.0143
2.20055
6.72991
-3.90573
2.47022
16.0399
4.41765
-14.8284
5.28434
-10.3746
4.19461
16.9847
-4.78038
13.3498
4.778
9.11287
16.1351
-9.20807
26.6572
5.12601
10.1084
0.63693
-15.8713
10.3177
-11.7513
6.55957
-4.7109
1.15424
13.8744
-2.81518
8.21266
3.49721
-0.364339
-14.8841
-8.70928
-3.37933
13.2428
8.43927
-4.0802
2.64917
-7.00824
5.65363
8.0137
-4.32624
-9.3411
11.4885
2.78224
-8.6171
0.72526
12.1075
-4.81904
13.2071
-4.04261
-7.59861
2.38655
2.59659
6.07673
-10.4969
9.71416
-6.67683
8.28741
-1.0683
6.47948
1.03861
-5.16877
-2.34932
1.93544
2.89049
1.65355
-3.61257
2.38858
3.15944
-0.889248
-1.68472
4.10183
7.21914
-8.43049
-2.12174
8.27045
-3.76014
-3.61073
9.3531
-2.97769
-2.76468
2.17374
-5.37458
-0.409887
3.14476
-1.90922
-2.12478
-5.53788
6.5609
3.28785
2.13764
3.92761
-6.50488
4.25485
-6.24036
-6.77291
-4.9375
4.72264
6.98777
-9.02771
1.07338
1.18141
-2.37
-2.89907
0.33158
6.86445
-8.3348
-0.899654
5.83847
-8.44496
9.47093
-6.28512
16.8462
-4.41369
-7.51309
7.06005
-8.77949
2.79282
-5.54514
6.32008
-8.40405
0.0235412
0.0457119
-4.0107
-9.9794
-8.75686
-0.0192236
-0.00341169
13.458
-0.360267
-11.3721
-1.72557
16.5053
15.689
-19.8559
-12.3383
4.04464
10.903
1.55765
12.1111
5.39152
14.4258
2.98105
-1.71785
13.0818
12.2469
23.9718
-12.1904
-3.65711
-8.12428
0.488897
-1.91046
25.3933
-15.0692
-0.655452
16.2136
-15.1485
22.6747
-14.7453
-11.5865
-1.1088
21.8731
23.2248
-17.0183
-6.47683
0.270377
0.620113
21.4959
10.8428
-13.5158
-14.3454
15.5567
-1.7328
-1.07806
13.5045
-6.47862
-14.7435
15.0987
12.9916
-0.224968
2.78723
-15.5539
1.84998
13.6882
-2.54658
21.5318
16.5544
-22.8415
-15.2448
-3.03867
10.8096
13.7609
5.13234
8.38344
11.6539
2.43434
-14.3132
-1.55373
15.0576
12.0734
12.4243
3.14415
-23.1984
-19.3736
6.85276
11.5665
0.954367
-12.7323
-1.0725
-5.56877
1.15098
17.0718
-6.14937
15.0267
0.039119
-11.9217
10.2182
9.94091
2.84619
-13.1442
-18.7703
4.86535
20.7577
-13.0538
-6.78893
16.2345
-10.1685
-0.232675
0.671885
-0.891452
0.452242
0.613672
-1.73911
0.89276
1.09496
-1.3975
0.916205
0.18937
1.57748
-1.17703
-0.0438998
0.329479
-1.67944
-1.23669
0.627533
0.634866
-1.3063
0.623542
2.02844
-2.02445
-1.52864
2.34155
-0.814215
-0.397666
-0.731159
1.94304
1.83909
-0.923835
-1.72947
0.86734
-0.502804
1.47455
0.842915
-1.19046
-1.04995
0.181619
0.943728
-3.05802
-1.13338
-10.3517
14.5459
-15.4068
11.2126
7.68105
-0.142801
-17.8899
1.00471
-3.21755
9.89389
-4.47699
20.0276
-24.6293
-1.02108
5.30148
20.3489
-13.5596
-1.50736
-9.56233
1.60893
-5.24888
-11.7668
-3.2407
-15.5633
14.327
-18.4048
14.143
-11.9536
-20.0109
18.0739
-11.127
-8.45432
20.1579
-9.96596
-3.98841
-8.27441
-0.795159
-2.0574
2.98415
-17.007
5.74849
-18.9354
4.42837
7.49038
-11.9187
9.14625
-8.23267
3.51478
1.70803
-2.68575
8.46809
-1.16041
12.0147
1.81947
-13.7382
-7.33334
0.920143
1.19641
-17.9835
1.838
14.9491
-15.6583
2.90939
13.9453
-22.0887
19.6758
1.83869
0.5742
-2.23764
0.221078
-20.0722
-3.29329
4.98561
-19.3837
0.432095
-10.8698
12.6187
-0.727401
1.26983
-7.87577
1.54996
-16.0156
-14.4727
13.625
14.2334
-14.921
1.59934
-1.23672
-17.9259
-10.8367
1.13176
7.22764
1.48657
-9.84596
2.41892
0.213074
-13.5199
10.8879
16.7102
9.35238
-18.9745
-7.08815
-9.4797
14.7201
11.4699
-6.87159
8.92601
-2.71003
0.65561
-9.08521
2.51064
-0.297024
15.1473
2.75104
-15.4794
-6.48416
12.5463
0.751243
-4.48436
-9.89305
10.3399
-2.87088
2.42408
2.43595
-12.1159
-3.27043
8.39666
4.22615
1.50683
-18.0454
-7.22163
8.20118
-9.78643
1.10531
-3.70942
12.3905
-7.98537
-24.4916
22.6906
2.33185
21.3966
-13.4188
-10.3097
-12.2357
2.33959
3.85966
6.03646
-12.8681
-15.5764
16.2087
-21.9558
1.10239
-6.95819
10.3594
16.0765
-19.4777
-3.46826
-2.38462
-7.31754
-8.85185
18.5012
-8.75652
-10.3627
11.8017
-7.24466
0.827731
0.671026
0.836497
-11.9698
2.27809
-8.5328
-10.6817
-7.45191
6.28053
-7.68092
8.85231
-10.928
6.47629
-3.00019
0.214553
-10.9565
12.3945
-1.65255
-9.68755
-1.02591
-6.16442
-3.66246
16.1074
-6.25095
6.56281
0.222958
-16.1701
9.69619
-22.1557
8.62136
13.7573
-0.926835
6.95879
-15.7195
7.44263
-19.3259
3.82556
-13.0369
-6.78173
-11.5484
-0.296884
5.01043
-10.5633
15.5222
17.426
-16.7651
6.56589
47.5009
-29.0126
-1.73581
-16.7524
1.33849
21.5272
24.6352
-33.5462
-2.75272
23.7739
12.525
-19.7973
-42.7615
-25.521
12.8275
14.032
-17.2161
-10.0407
-26.8665
14.0519
10.0618
-12.1396
8.92975
-23.6566
0.557459
-32.4944
8.62461
36.6765
10.1467
-14.6819
17.3627
-32.5539
29.0581
17.5477
-5.57583
-18.0483
16.2475
9.85961
-25.5497
25.757
-6.98573
14.0666
-15.0352
-2.63733
2.02203
18.9957
-14.7119
2.03171
14.3266
-6.90816
3.27693
-14.8613
18.4925
15.8548
-18.1728
-1.15836
4.67376
-7.03247
18.2135
-11.428
-0.40825
-10.8379
22.6742
-1.76619
-16.57
-2.87426
22.3834
-5.62365
0.721783
-13.2709
-10.1006
19.3722
-9.67977
3.28725
-15.1541
-19.4827
17.1463
2.49539
4.13794
15.843
-22.4763
7.64002
24.633
-29.7776
13.2498
-9.2511
10.3553
17.1745
3.34677
-1.14909
21.9402
7.78828
6.63814
-26.288
11.0854
-16.4714
-6.16735
9.15859
8.32118
1.39628
18.6677
-8.9786
10.3147
9.76854
-13.445
-6.54519
18.2561
8.63845
3.86188
11.5329
7.0886
-9.9831
-0.886958
9.58642
1.94204
2.23268
-15.2142
11.0394
15.2819
-6.65258
6.92612
-15.5555
-4.50071
-0.990628
20.7733
-12.7839
3.5032
-2.09867
11.3793
4.11881
-14.9606
-4.41519
14.9244
-15.0099
-9.92182
-3.82897
12.7602
-16.5954
0.0210164
21.3592
-0.928931
-9.97211
-10.4582
2.145
2.20604
17.0082
17.6977
-9.24164
-9.38502
4.48348
15.3593
12.9271
4.01546
-12.8238
-0.165078
-0.460861
-12.7043
17.1806
-4.20607
-12.2304
15.9756
19.3908
-11.7208
-17.6421
17.1817
13.8892
-13.2347
-13.6942
14.1536
10.0483
-19.8106
-4.3913
-7.25123
12.1547
9.25013
6.35916
-3.56211
-15.6558
4.06529
12.2862
-0.695773
-17.4169
-11.9445
13.7056
2.25389
-14.5697
18.6749
-4.44885
-11.7104
18.4132
3.68192
12.5381
14.2799
-13.1412
-5.58751
19.845
-9.92679
4.36173
4.41542
20.9511
-5.52155
22.9092
-14.8119
-9.96282
-2.22162
-4.33031
16.5148
-15.4145
14.8482
-9.39651
9.80252
-6.91211
-2.89041
3.44144
-0.762427
13.7757
-16.4547
0.0911596
13.1528
9.16391
-4.67807
-6.70746
1.5163
6.5866
-2.3596
-5.7433
8.97332
-7.45702
2.06121
2.39624
-12.9234
9.76474
-6.71717
9.20457
-8.43423
-17.6219
19.339
-6.37303
-18.4553
-15.468
16.3014
-15.4286
-9.39969
-5.35767
-3.33933
-6.77103
-14.1997
-7.09882
1.76576
11.5457
1.42301
-14.7345
-17.3996
15.2586
3.9068
0.544822
-0.642445
-17.302
-1.51752
-0.120322
16.8964
-1.42256
11.4507
5.95423
-22.5701
18.4783
-1.86242
13.7886
-12.5939
4.75951
16.4415
-2.91355
-17.2319
3.704
17.2015
-0.760051
-17.7463
-2.00298
19.629
-0.734773
13.1008
5.60101
-1.46168
-26.7094
-9.40903
2.41612
19.4547
-1.41698
0.440532
1.28551
17.4344
16.0188
-20.394
-1.10735
16.3661
17.0378
-17.7553
-20.7807
-18.5578
27.1801
12.1584
-5.65748
-30.4668
15.3436
9.50394
-2.65148
-25.4102
6.10837
34.3378
-13.2661
-29.1047
-10.494
17.8296
21.7691
20.1934
-33.7606
4.93302
8.63423
-6.03553
32.3373
-30.2182
-4.64977
5.76331
-25.5927
1.33598
0.110215
-21.1616
-4.54135
35.118
-28.9141
-6.0937
24.181
15.8701
-13.1964
31.3418
25.6421
-36.9879
-1.85051
5.01818
-22.4309
-3.74887
-24.7988
0.902843
2.77726
-4.38692
-3.20871
4.81836
-1.81365
1.44204
3.14888
-0.827851
0.189174
-3.74824
5.33548
0.0193949
-6.18273
5.02776
-4.46572
-5.42704
4.865
-2.10691
3.56741
3.56727
1.41492
0.499773
-4.9461
-2.74108
6.51304
0.547598
-20.9651
13.9044
-5.73888
5.63449
6.61743
10.6816
-0.721427
4.37583
-14.336
14.1659
6.83171
-20.45
-12.504
12.7973
16.9159
-17.2092
-1.34752
-11.1565
-12.0959
9.66727
13.1102
-13.4434
9.78897
3.65548
13.6751
-8.94308
2.09972
-4.47297
26.9375
18.9911
0.903344
-2.87274
-14.4282
16.3976
-1.90567
-12.6947
15.5037
2.62677
1.43241
-18.2618
14.2026
-15.1348
15.8559
-15.1856
13.7452
6.38976
-12.3146
-8.50334
-6.30491
-4.26084
-16.5097
5.63577
8.0572
-4.09632
2.3439
-6.30477
-18.616
11.4876
-2.26415
-20.4481
-10.5657
-1.46627
-14.4516
-2.88359
-15.0924
1.38195
-15.9608
-12.0674
13.0919
-13.5945
5.34275
-4.84012
-6.91365
7.1751
12.8305
8.43926
-2.5113
-19.5225
1.5256
9.38125
4.16841
-8.20691
19.3536
-2.79722
-7.65725
9.18286
-11.5362
1.54649
11.9551
-1.96535
-5.3748
-13.8187
-17.1977
9.31158
10.1847
-14.4918
-14.6522
18.9593
-0.352478
10.5372
-0.538299
10.7705
1.57453
-11.8067
2.18918
-17.2193
9.42843
9.28866
-7.94663
9.07596
-0.741286
11.6464
-9.33063
15.4441
-13.9962
0.279144
13.338
-14.0473
0.430203
4.2009
-6.82521
18.0684
-0.683605
-12.9732
12.8567
0.800119
8.39235
-3.63165
-0.0528741
16.8608
-12.6263
-0.0336701
-0.275904
17.6666
-0.529889
0.578027
8.09347
13.1588
-4.61149
-18.8219
17.7656
-14.7645
15.8207
-11.7225
-2.9336
-4.16578
4.98741
-1.6897
14.4679
-26.5652
1.78639
10.0143
-22.6403
-15.6474
-11.7046
18.1352
-1.44324
18.3608
-14.6183
-6.676
12.0196
4.6515
-19.7731
9.8549
31.2101
-8.33217
-32.926
10.048
27.0724
-15.6353
19.074
4.43274
-7.16047
-16.3463
12.7064
5.21044
1.15719
2.00289
-32.9753
-13.6437
13.9481
12.402
-7.10009
-2.11091
15.8681
-21.0257
6.4602
12.3865
11.0492
-11.8686
-11.5671
-6.01837
14.4966
3.90834
-21.4817
4.0801
14.5889
2.81273
-9.89555
-0.536937
18.7567
-12.6316
1.83378
-7.9588
23.7665
-7.10828
2.09842
11.4974
0.160927
-23.527
8.32293
-2.84387
13.6813
4.89532
11.2763
-22.5874
11.472
6.8962
-8.25156
-17.65
-16.8461
21.1465
13.3496
1.45567
-10.7827
-8.4942
0.0692429
35.1502
-22.2477
-12.9717
32.4871
-11.9218
-20.4961
5.22609
15.7204
14.2036
18.1238
19.5894
-21.5108
-6.38596
5.64907
11.1966
13.005
-8.48115
-11.019
2.27293
12.7283
-3.98227
-11.5201
-1.88126
2.38233
16.6709
-4.68695
-12.8879
0.904036
11.3716
-6.22081
-15.7541
17.2387
6.10695
-7.59158
6.75682