/*--------------------------------*- C++ -*----------------------------------*\
  =========                 |
  \\      /  F ield         | OpenFOAM: The Open Source CFD Toolbox
   \\    /   O peration     | Website:  https://openfoam.org
    \\  /    A nd           | Version:  10
     \\/     M anipulation  |
\*---------------------------------------------------------------------------*/
FoamFile
{
    format      ascii;
    class       volVectorField;
    location    "12";
    object      U;
}
// * * * * * * * * * * * * * * * * * * * * * * * * * * * * * * * * * * * * * //

dimensions      [0 1 -1 0 0 0 0];

internalField   nonuniform List<vector> 
75457
(
(5.02737 0.759481 -0.82597)
(5.18947 -0.0897684 -1.04805)
(7.06172 0.860924 -0.693118)
(9.13391 0.410336 -1.06406)
(3.68704 2.17575 -0.0218504)
(3.75189 2.37151 -0.238445)
(5.37986 0.43112 -0.561754)
(5.11862 1.40774 -1.04169)
(10.0153 0.100873 -1.27734)
(9.82946 0.327044 -1.09562)
(10.0245 0.510796 -1.05373)
(3.93218 1.72995 0.102177)
(3.95106 1.4723 -0.398188)
(8.65355 0.733724 -0.541236)
(11.8978 -0.328561 -0.0517888)
(11.9885 -0.332637 -0.0438451)
(12.3616 -0.417058 -0.225288)
(12.1402 -0.439376 -0.273341)
(12.0714 -0.372694 -0.0756504)
(12.3716 -0.35771 -0.153996)
(12.1894 -0.411707 -0.233779)
(12.2581 -0.407384 -0.0978078)
(11.955 -0.361349 -0.0676446)
(11.9501 -0.370597 -0.103273)
(12.2339 -0.43184 -0.0876676)
(11.7215 -0.412029 -0.241221)
(11.6766 -0.43685 -0.260874)
(11.1247 -0.717286 0.313768)
(10.9417 -0.726531 0.445801)
(11.0921 -0.726145 0.30399)
(11.2766 -0.666005 0.278464)
(10.8775 -0.718278 0.409866)
(10.8864 -0.706154 0.428737)
(11.5697 -0.524915 0.280412)
(11.5512 -0.515739 0.25406)
(11.6904 -0.509008 0.45065)
(11.6226 -0.553195 0.313684)
(10.8188 -0.725321 0.47583)
(10.9539 -0.713765 0.474931)
(11.6144 -0.4836 0.29643)
(11.6418 -0.482619 0.311599)
(11.6202 -0.515231 0.326935)
(11.6608 -0.567112 0.456341)
(12.849 0.379034 0.450127)
(12.6399 0.391679 0.387578)
(12.9967 0.371061 0.450086)
(13.0034 0.352008 0.471761)
(12.8284 0.384857 0.473745)
(12.2729 0.148299 0.0889313)
(12.5306 0.216554 0.161984)
(12.5417 0.218598 0.149535)
(12.3477 0.157274 0.124551)
(12.0447 0.174038 0.0317787)
(12.454 0.211097 0.141993)
(12.5756 0.202232 0.190606)
(12.5737 0.201217 0.168549)
(12.1424 0.218093 0.0973851)
(12.1612 0.21554 0.082858)
(12.2304 0.147019 0.055789)
(12.0104 0.16607 0.0197032)
(12.0884 0.197564 0.0710893)
(12.3247 0.15264 0.0944049)
(9.92675 0.0570239 -0.292105)
(9.93501 0.0672777 -0.31636)
(10.1204 0.0910007 -0.248095)
(9.92018 0.0626365 -0.286407)
(9.94441 0.0572716 -0.267817)
(9.89271 0.0362054 -0.264216)
(9.91099 0.042404 -0.203937)
(9.80327 0.0287452 -0.225958)
(9.82083 0.0095383 -0.22379)
(9.76555 0.00308539 -0.235684)
(9.94204 0.0499542 -0.212156)
(10.1164 0.0921556 -0.248015)
(9.9234 0.04935 -0.191227)
(10.0946 0.082622 -0.217803)
(10.085 0.0742111 -0.206293)
(0.532436 0.958289 0.209311)
(-1.16775 1.1771 -0.860605)
(-0.956529 0.993091 -0.747844)
(1.47428 1.23197 0.360427)
(-1.02408 1.38467 -0.463659)
(0.429007 0.683243 -0.135855)
(-0.504765 0.705473 -0.41213)
(-0.857459 1.14404 -0.684938)
(-1.07731 1.25997 -0.855672)
(-0.491625 0.910304 -0.962855)
(-0.188943 0.785463 -1.17828)
(1.64453 0.837289 -0.308176)
(2.01452 1.18843 0.115149)
(0.259187 0.585906 -0.459989)
(-0.51268 0.60999 -0.61447)
(0.749472 1.26888 0.35514)
(-0.570742 0.901535 -0.222054)
(12.4939 -0.27609 -0.0180404)
(12.8762 -0.281636 -0.0223658)
(12.8762 -0.285579 -0.0220279)
(12.8966 -0.285331 -0.0171045)
(12.2759 -0.274686 -0.0175129)
(12.5297 -0.273221 -0.019812)
(12.5292 -0.284204 0.0040954)
(12.3895 -0.264926 -0.0174108)
(10.0177 -0.00988109 -0.019406)
(10.028 -0.00913252 -0.0162316)
(10.0211 -0.0148795 -0.0218888)
(10.0213 -0.0194312 -0.0153657)
(10.0125 -0.0174123 -0.00652219)
(10.0241 -0.0172891 -0.00562308)
(9.85575 0.000720882 -0.0203049)
(9.93386 -0.0143929 -0.0148445)
(9.94534 -0.018161 -0.0109628)
(9.9026 -0.018848 -0.00152586)
(9.8714 -0.0257867 -0.0229223)
(10.7603 0.114913 0.067122)
(10.7967 0.138355 0.187518)
(10.3941 0.0973898 0.112994)
(10.3836 0.0318551 0.0382928)
(10.775 0.0868006 0.20508)
(10.6481 0.151237 0.11629)
(10.5486 0.201749 -0.0212303)
(10.8623 0.106648 0.268482)
(10.8547 0.13134 0.277488)
(10.7513 0.129293 0.271251)
(10.5548 0.153479 0.127582)
(10.4562 0.126103 0.0898657)
(10.5009 0.123344 0.142161)
(10.5541 0.166137 0.0563984)
(10.4995 0.0934014 0.150802)
(10.5391 0.0577562 0.0825205)
(10.639 0.117188 0.229289)
(10.7336 0.115781 0.246546)
(11.3281 0.00559499 0.378448)
(11.4003 0.0790761 0.328541)
(11.4027 0.0555014 0.359677)
(11.3297 0.0332662 0.323058)
(11.3262 0.0189667 0.314596)
(11.3159 0.0793721 0.33291)
(11.247 0.0377304 0.311392)
(11.2535 0.0275686 0.358269)
(11.2024 -0.00798493 0.329938)
(11.9544 0.0348867 0.18754)
(11.9613 0.020785 0.208012)
(11.8525 0.0140621 0.241706)
(11.9651 0.0300242 0.156971)
(11.9984 0.0186374 0.177202)
(11.6955 0.0250304 0.120629)
(11.869 0.00469087 0.249409)
(11.9024 -0.0058143 0.213311)
(12.8313 0.0430923 0.00966322)
(12.9239 0.0586409 0.0426309)
(12.6935 0.0235095 -0.0531539)
(12.7142 0.0923138 0.023977)
(13.1276 0.0496672 0.141788)
(13.0726 0.0924085 0.185944)
(12.8923 0.0569915 0.0841195)
(12.7254 0.0884876 0.0217422)
(12.6947 0.0757096 0.0689794)
(12.6323 0.0746269 -0.000534164)
(13.0496 0.08415 0.17301)
(12.7178 0.0912889 0.033481)
(12.7337 0.0370241 -0.00460781)
(13.0323 0.0835342 0.214125)
(12.6505 0.0811229 0.0674542)
(11.5413 1.08492 0.90949)
(11.2959 1.24334 0.899311)
(11.2071 1.30775 0.860185)
(11.3976 1.21766 0.812775)
(11.2631 1.11153 0.772651)
(11.7383 0.947334 0.877245)
(11.5771 0.758528 0.569897)
(11.4527 0.883954 0.697597)
(11.581 1.2746 1.03912)
(11.4631 0.959801 0.675586)
(11.5679 1.07575 0.713483)
(11.8327 1.14675 0.916589)
(11.6594 0.935543 0.61879)
(12.9637 -0.067681 -0.0706827)
(13.0866 -0.0279412 -0.0865747)
(12.9823 -0.00447889 -0.0375761)
(12.8024 -0.0326891 -0.0119052)
(12.8317 -0.0122445 -0.000351101)
(12.6951 -0.0191364 -0.0407713)
(12.9328 -0.0677629 -0.0376002)
(12.8726 -0.078694 -0.0132493)
(12.7325 -0.0863123 -0.000106294)
(13.0786 -0.0333823 -0.100431)
(12.8199 -0.0358547 -0.030257)
(12.963 -0.0607809 -0.0563765)
(12.7169 -0.0317671 -0.0150995)
(12.6734 -0.0248477 0.00099748)
(9.96964 -0.0874618 -0.75103)
(9.40541 -0.253843 -0.913998)
(9.24797 -0.0781087 -1.00796)
(8.5525 -0.134276 -0.828321)
(7.97883 -0.224784 -0.909354)
(8.39154 -0.107897 -0.88977)
(11.6517 0.448559 -0.663167)
(11.4969 0.290547 -0.501308)
(11.5763 0.270612 -0.478007)
(11.6763 0.344093 -0.510282)
(11.7906 0.366421 -0.521215)
(11.4307 0.245041 -0.223223)
(11.2773 0.376388 -0.147334)
(11.3277 0.370066 -0.118767)
(11.4613 0.41576 -0.251242)
(11.7133 0.424723 -0.264948)
(11.5552 0.344821 -0.0687445)
(11.8505 -0.00225077 -0.101854)
(11.8987 -0.0164706 -0.0415641)
(11.9419 -0.023913 -0.03724)
(12.1604 -0.0485769 -0.0653738)
(12.0838 0.00015618 -0.121338)
(11.7555 -0.0137826 -0.0597296)
(11.7625 0.0464698 -0.0870139)
(12.068 0.00131478 -0.136367)
(11.9542 -0.00226565 -0.08654)
(11.8331 -0.0333097 -0.0247756)
(12.0646 0.00389775 -0.133774)
(11.7242 0.0156446 -0.0948488)
(11.6863 0.00271195 -0.017053)
(11.7008 -0.0022007 -0.0443042)
(11.8021 0.472692 -0.0294247)
(11.8745 0.492141 0.0128861)
(11.7068 0.471218 -0.0229229)
(12.0556 0.444279 -5.32972e-05)
(11.9116 0.430288 0.0417987)
(11.8111 0.525582 -0.0307885)
(11.8819 0.528873 -0.00832095)
(11.8392 0.564741 -0.0537045)
(11.7433 0.555278 -0.02737)
(12.1408 0.514198 -0.0785493)
(12.1794 0.494226 -0.0688369)
(11.9319 0.528931 -0.0176074)
(11.8987 0.526216 -0.0371294)
(11.9656 0.526461 -0.00314258)
(12.1821 0.0027498 -0.287832)
(11.9677 -0.00136712 -0.316262)
(12.3546 -0.0568221 -0.292214)
(12.3004 -0.0396284 -0.232251)
(12.3192 -0.0542882 -0.230787)
(12.3812 -0.061139 -0.305048)
(12.098 -0.00717688 -0.236239)
(11.9646 0.0238404 -0.277771)
(11.9692 -0.00619828 -0.299582)
(11.9134 -0.0100138 -0.285805)
(12.0806 -0.0272891 -0.312728)
(12.0602 -0.0153731 -0.221081)
(12.0717 -0.00946987 -0.208277)
(11.9353 0.000115288 -0.30543)
(11.8853 -0.00666707 -0.28609)
(12.0002 -0.00338613 -0.217958)
(11.9664 0.0189526 -0.2785)
(10.5582 -0.0729028 0.0209747)
(10.3088 0.0225943 -0.052906)
(10.4218 0.0236911 -0.0553222)
(10.3922 0.042154 -0.0380472)
(10.6513 -0.129613 0.0370197)
(10.7936 -0.157642 0.0163936)
(10.6874 -0.231045 0.182304)
(11.8518 -0.187158 0.175082)
(11.9241 -0.273467 0.163726)
(11.8681 -0.240865 0.168725)
(10.6401 -0.0814185 0.0418106)
(10.6112 -0.175848 0.0902021)
(12.4113 0.209681 -0.094063)
(11.6821 0.132192 0.0216613)
(11.9904 0.0992588 -0.140433)
(11.7826 0.000901601 -0.0620522)
(11.7786 0.131577 0.0428001)
(12.0278 -0.0103722 -0.0963781)
(11.9345 0.0234677 -0.0794785)
(11.9218 0.131798 0.000582703)
(12.2517 0.207688 -0.268022)
(12.1533 0.189281 -0.224216)
(12.3592 0.217687 -0.104531)
(12.1508 0.182243 -0.204559)
(12.3793 0.212899 -0.100074)
(12.4173 0.0483598 0.138712)
(12.3457 0.0134168 0.151995)
(12.5444 0.0720149 0.167222)
(12.4637 0.00628495 0.194212)
(12.4365 -0.00654074 0.199245)
(12.3609 0.0422665 0.125504)
(12.368 0.00985576 0.142222)
(12.4417 0.0307974 0.16521)
(12.4165 0.0118418 0.174934)
(12.4465 0.068584 0.133445)
(12.8005 0.146662 0.169507)
(12.7322 0.125553 0.163729)
(12.4546 0.0573797 0.135371)
(12.6682 0.120377 0.136509)
(12.6434 0.116998 0.132575)
(9.66657 0.153409 0.0161823)
(9.61671 0.11552 0.0306768)
(9.43381 0.00609402 -0.0386997)
(9.41944 0.00557792 -0.0376199)
(9.53888 0.11952 -0.0208073)
(9.69285 0.109305 -0.0049824)
(9.70978 0.13871 -0.00335641)
(9.50249 0.0519572 -0.0111428)
(9.58678 0.0579575 -0.00645695)
(2.96004 -0.115921 -0.275173)
(2.84595 -0.029136 -0.220308)
(3.03906 -0.285786 -0.244788)
(3.17254 -0.299992 -0.284296)
(2.90698 -0.230225 -0.223644)
(2.7707 -0.0748793 -0.283975)
(2.90173 -0.16794 -0.426499)
(3.04357 -0.350549 -0.360996)
(2.92857 -0.092959 -0.339139)
(3.13386 -0.269628 -0.454633)
(3.35955 -0.386796 -0.39421)
(3.23651 -0.287582 -0.353399)
(3.36949 -0.381455 -0.352845)
(3.38578 0.173971 0.222628)
(1.19487 0.486757 0.370189)
(0.743673 0.290597 0.00128415)
(2.98898 0.0758501 0.0748826)
(3.23099 -0.187387 0.0283748)
(2.86995 -0.267308 0.0507712)
(3.10159 0.0808053 0.0160228)
(-1.40458 -0.0501361 -0.1528)
(-0.959783 0.625239 0.101539)
(-0.0982248 0.437379 0.193828)
(-0.291039 -0.191003 -0.0919999)
(12.5655 0.0924368 0.13081)
(12.6773 0.116508 0.139224)
(12.6885 0.129587 0.128877)
(12.4129 0.154699 0.0628439)
(12.341 0.145378 0.0493362)
(12.3811 0.0975943 0.0747991)
(12.4081 0.124037 0.0673607)
(12.3419 0.141607 0.051324)
(12.2639 0.132219 0.0551742)
(12.5487 0.0825599 0.121705)
(12.5961 0.0984314 0.108035)
(12.1268 0.0474968 0.0372703)
(12.1025 0.046678 0.0652285)
(12.1472 0.0841023 0.0123528)
(12.3074 0.100254 0.0755983)
(12.0713 0.0438704 0.0497954)
(12.0659 0.0410427 0.0264455)
(-1.7631 -0.197998 -0.947219)
(-1.42153 -0.68013 -0.517792)
(-1.53096 -0.254143 -0.668184)
(-1.48479 -1.15058 -0.15744)
(-2.58074 -0.114213 -0.435377)
(-2.34518 -0.228384 -0.671746)
(-2.65494 0.188982 -0.591305)
(-0.990629 -1.1847 -0.299965)
(-1.86547 -0.510928 -0.687088)
(-1.87147 -0.774532 -0.116797)
(-1.88846 -0.827942 -0.195653)
(10.9678 0.160267 0.0391052)
(10.9707 0.166836 0.00870606)
(10.7409 0.111498 0.013957)
(10.48 0.0352544 0.0584709)
(10.5592 0.127868 -0.0268898)
(10.4592 0.0562668 0.040459)
(10.4376 0.0551592 0.0214193)
(10.3806 0.0718135 0.04592)
(10.6259 0.101559 0.0493105)
(10.2606 0.0123108 0.0389162)
(10.5949 0.10396 0.0362288)
(11.6535 0.262657 0.134876)
(11.6311 0.249338 0.108293)
(11.6689 0.272702 0.136386)
(11.6407 0.241164 0.0998671)
(11.4446 0.242202 0.0640545)
(11.5174 0.262944 0.0954196)
(11.2678 0.300144 0.0406265)
(11.3506 0.308866 0.0583771)
(11.5074 0.295405 0.0842321)
(11.3706 0.280065 0.0598983)
(11.1883 0.290278 0.00296641)
(11.2584 0.303255 0.0112525)
(11.3383 0.22924 0.047549)
(11.3977 0.240082 0.0576949)
(11.3029 0.253475 0.0510421)
(5.54718 -0.224186 0.0419048)
(4.94097 -0.134562 -0.0378302)
(4.81537 -0.108649 -0.190789)
(5.31689 -0.0686054 -0.178926)
(4.15089 -0.0258492 -0.170482)
(12.2121 -0.0345604 0.502582)
(12.3119 -0.0552819 0.499496)
(12.4429 -0.0691047 0.540489)
(12.3765 -0.064314 0.536956)
(12.696 -0.111536 0.535243)
(12.6718 -0.120562 0.551826)
(12.4921 -0.073813 0.521385)
(7.92217 2.56008 0.0464604)
(7.47451 2.72706 -0.468719)
(8.85563 2.3304 -0.229801)
(8.71185 2.60658 -0.384178)
(7.95856 3.02204 -0.023708)
(7.42344 3.05871 -0.559639)
(8.06452 2.29739 0.0666053)
(7.55358 2.40449 -0.557016)
(8.17654 3.07879 -1.21263)
(7.32344 3.12332 -1.27686)
(8.26366 2.1838 -0.0343427)
(7.93721 2.19139 -0.622796)
(8.25913 2.7468 -1.12362)
(7.72757 2.70533 -0.947685)
(8.93027 2.2406 -0.235395)
(8.4249 2.49887 -1.06052)
(7.86801 2.45545 -0.88822)
(8.94265 2.29337 -0.433387)
(9.61719 2.11847 -0.27948)
(9.77127 1.95809 -0.355557)
(9.57625 2.00906 -0.580338)
(9.50321 2.10312 -0.669227)
(9.51607 1.81715 -0.573567)
(9.4359 2.13035 -0.662029)
(9.56468 1.95332 -0.153852)
(9.49613 2.12728 -0.203326)
(9.41582 2.24857 -0.536555)
(8.98553 2.0692 -0.480409)
(9.29919 1.74629 -0.401614)
(9.28644 1.91782 -0.197019)
(9.00404 2.25986 -0.152217)
(10.2005 3.25613 -0.902582)
(10.5518 2.81726 -0.831971)
(10.9784 2.14156 -0.304994)
(10.892 2.03417 -0.309794)
(10.3421 2.5321 -0.815854)
(10.5689 2.524 -0.733635)
(10.705 2.25295 -0.455207)
(10.6821 2.17647 -0.464172)
(10.4568 3.25285 -0.749254)
(10.7898 2.98035 -0.609476)
(9.95316 2.88473 -0.83846)
(10.0302 2.98033 -0.820951)
(10.7539 2.66825 -0.236751)
(10.6653 2.46702 -0.215068)
(10.9725 2.40103 -0.293918)
(10.4033 2.21201 -0.53529)
(10.0922 2.67447 -0.483611)
(10.1651 2.80452 -0.51153)
(10.4751 2.76752 -0.267611)
(10.4631 2.6267 -0.295435)
(10.3955 2.90169 -0.431856)
(10.3113 2.56013 -0.362708)
(13.1329 -0.0597891 0.297245)
(12.8994 -0.0697848 0.270223)
(12.9752 -0.113801 0.281806)
(12.9041 -0.0666609 0.280916)
(12.9858 -0.113032 0.287437)
(13.1871 -0.048925 0.315993)
(13.0346 -0.0400884 0.304269)
(13.2171 -0.0894981 0.279477)
(12.9844 -0.0652476 0.275954)
(13.143 -0.0467869 0.305142)
(13.1265 -0.126547 0.274304)
(13.0312 -0.0526381 0.296049)
(13.2032 -0.108419 0.273413)
(13.0491 -0.0590662 0.289508)
(13.2157 -0.117067 0.268785)
(13.1857 -0.0679526 0.285784)
(4.03441 0.166782 -0.465808)
(-1.39398 0.01118 -0.448438)
(2.16551 2.30449 0.356659)
(2.477 2.60814 0.304962)
(9.70457 1.0777 -1.83028)
(9.87541 1.17838 -2.1082)
(3.80138 2.24117 -0.598611)
(3.80886 2.08046 -0.329194)
(10.4214 0.719368 -1.69606)
(10.5479 0.70414 -1.8632)
(0.438997 0.496831 0.692005)
(5.71008 0.137059 -0.843689)
(3.74686 1.06899 -0.185075)
(4.75471 1.98744 -0.348534)
(9.62747 1.26435 -1.65825)
(10.5258 1.1438 -1.52406)
(12.591 0.114319 0.306704)
(12.6439 0.160018 0.295592)
(12.5296 0.11471 0.244225)
(12.4861 0.116092 0.206224)
(12.4516 0.124209 0.216778)
(12.4652 0.114859 0.265812)
(12.5859 0.12238 0.258739)
(12.651 0.133309 0.295969)
(12.576 0.163298 0.304929)
(12.5338 0.102471 0.309371)
(12.3943 0.132121 0.207592)
(12.3739 0.098564 0.157166)
(12.4292 0.119778 0.226307)
(12.4593 0.117852 0.267217)
(12.387 0.0992968 0.149568)
(12.4549 0.105491 0.162464)
(12.55 0.107343 0.195883)
(12.4969 0.117449 0.209528)
(9.72463 1.77215 -0.093115)
(9.42135 1.69414 0.655231)
(9.33294 2.06778 0.822678)
(9.70128 1.93717 0.164959)
(9.59642 2.08941 0.0402732)
(9.21288 2.54751 0.288592)
(8.69783 2.73624 0.257449)
(9.34847 1.74139 -0.0868657)
(9.53637 2.09474 0.584973)
(9.00371 1.94802 0.628028)
(8.85539 2.21859 0.666555)
(8.79269 2.69576 0.377933)
(9.29605 2.43409 0.536966)
(9.7212 1.80191 0.361757)
(9.66532 1.6305 0.354436)
(9.61371 1.66931 -0.0353095)
(10.5698 0.667614 -0.243725)
(10.6451 0.668703 -0.194963)
(10.6034 0.611581 -0.233649)
(10.6059 0.781466 -0.26724)
(10.7179 0.847351 -0.170997)
(10.5467 0.558871 -0.253421)
(10.4805 0.64287 -0.323114)
(10.5186 0.733541 -0.349782)
(10.5795 0.750151 -0.340218)
(10.5166 0.735739 -0.386019)
(10.5718 0.745838 -0.326143)
(10.6454 0.751307 -0.363583)
(10.5924 0.740805 -0.407974)
(10.6982 0.769742 -0.31041)
(10.6377 0.739409 -0.303609)
(10.4873 0.605891 -0.290593)
(10.4536 0.635861 -0.348769)
(11.7151 -0.0510749 0.791197)
(11.7217 -0.0247485 0.762858)
(11.8386 0.124191 0.657422)
(11.8408 0.157517 0.67328)
(11.8336 0.165248 0.677057)
(11.8327 0.120517 0.653435)
(11.7343 -0.0157124 0.858391)
(11.7104 -0.00617479 0.886702)
(11.8357 0.290942 0.804734)
(11.8279 0.383219 0.957645)
(11.7019 -0.0122024 0.715718)
(11.844 0.12394 0.661007)
(11.8491 0.290531 0.810344)
(11.8496 0.327169 0.893287)
(11.7098 0.0073595 0.683679)
(11.8876 0.289406 0.875733)
(11.7789 0.00467281 0.820779)
(9.84637 -1.30166 0.301511)
(10.2056 -1.26364 0.293251)
(10.3291 -1.25384 0.394165)
(9.66711 -1.36317 0.354226)
(10.2026 -1.19736 0.191352)
(9.57326 -1.384 0.278372)
(9.60921 -1.20473 -0.0403489)
(9.35864 -1.3234 -0.0297361)
(10.2339 -1.15985 0.230519)
(10.3628 -1.22962 0.297858)
(10.369 -1.24337 0.399089)
(9.71008 -1.44547 0.302543)
(9.09484 -1.36956 -0.111165)
(9.45403 -1.25364 -0.100142)
(9.35879 -1.44673 -0.180784)
(9.7952 -1.13234 0.000985978)
(9.09397 -1.51799 -0.10667)
(9.13979 -1.52747 -0.145552)
(12.1573 -0.484782 0.27759)
(12.3592 -0.415265 0.31227)
(12.361 -0.379852 0.297961)
(12.3487 -0.348556 0.190195)
(12.117 -0.409038 0.177238)
(12.403 -0.305399 0.265417)
(12.1437 -0.481284 0.284385)
(12.3028 -0.407405 0.297177)
(12.2927 -0.391686 0.283155)
(12.3881 -0.294733 0.265721)
(12.2821 -0.359087 0.185485)
(12.2308 -0.406337 0.254657)
(12.3169 -0.329827 0.221003)
(12.0873 -0.491067 0.221482)
(11.7045 -0.740351 0.408568)
(11.7774 -0.692647 0.424178)
(11.6487 -0.669252 0.677244)
(12.0305 -0.545632 0.684847)
(11.6698 -0.673809 0.695011)
(11.634 -0.711873 0.681756)
(11.4629 -0.791529 0.491583)
(11.7947 -0.696756 0.40383)
(11.8869 -0.635826 0.443162)
(11.5751 -0.800486 0.618865)
(11.5989 -0.778741 0.605273)
(11.5067 -0.782855 0.51681)
(11.7945 -0.706793 0.431563)
(12.1092 -0.54486 0.506014)
(12.1104 -0.554126 0.493188)
(11.5908 -0.750086 0.481823)
(12.0675 -0.586308 0.550593)
(11.7318 -0.715539 0.565912)
(10.6211 3.3744 -0.753867)
(10.9976 3.29922 -0.657586)
(10.9901 3.05115 -0.610803)
(10.4216 3.30117 -0.529373)
(10.7356 3.50289 -0.533791)
(11.3477 3.00473 -0.318683)
(11.1951 2.6401 -0.290182)
(11.041 3.42671 0.0123875)
(11.2549 3.24763 0.0490898)
(10.5893 3.36106 -0.143775)
(11.1009 2.56879 -0.234632)
(11.0958 3.59564 -0.164784)
(11.4953 -0.228158 0.815033)
(12.128 -0.17576 0.852924)
(11.2799 -0.426237 0.779055)
(12.1008 -0.170065 0.842501)
(11.3653 -0.184677 0.835198)
(11.766 -0.348639 0.71045)
(11.3563 -0.343617 0.773091)
(11.4152 -0.392698 0.739072)
(11.6442 -0.391478 0.744248)
(12.4092 -0.14557 0.724031)
(12.5508 -0.145623 0.65804)
(12.401 -0.187752 0.713526)
(12.1854 -0.290648 0.629381)
(12.3091 -0.271345 0.60086)
(12.5352 -0.159434 0.658806)
(12.3053 -0.263509 0.600363)
(12.3638 -0.104025 0.821821)
(12.2002 -0.0261619 0.791099)
(12.3027 -0.0760455 0.808667)
(12.1962 -0.021173 0.766516)
(11.845 -0.0169733 0.900441)
(11.6795 -0.163408 0.964617)
(11.267 -0.206974 0.970447)
(11.8393 0.0185239 1.00892)
(11.8633 -0.0124995 0.883768)
(12.1711 -0.00625175 0.784957)
(12.2553 -0.0590289 0.805182)
(12.1754 -0.174929 0.859481)
(11.3207 -0.240039 0.929147)
(12.1116 -0.152403 0.840172)
(11.9483 -0.250959 0.869897)
(11.9496 -0.233627 0.87768)
(12.4458 0.469466 0.579079)
(12.5114 0.484466 0.600104)
(12.5623 0.415743 0.549854)
(12.38 0.527191 0.427176)
(12.1821 0.704726 0.550823)
(12.3998 0.289918 0.517466)
(12.3279 0.300537 0.508413)
(12.5862 0.574909 0.540215)
(12.4733 0.649492 0.609731)
(12.4187 0.633574 0.44707)
(12.2674 0.718417 0.547558)
(12.3897 0.590786 0.614898)
(12.3286 0.550125 0.587731)
(12.2105 0.514106 0.613232)
(12.2976 0.432345 0.509776)
(12.474 0.303994 0.520368)
(12.4378 0.361589 0.485941)
(12.3596 0.357315 0.506968)
(12.4792 0.525469 0.487448)
(11.1178 -0.276176 -0.560026)
(11.0785 -0.282542 -0.533102)
(11.4686 -0.289057 -0.472056)
(10.7048 -0.306742 -0.568483)
(11.1633 -0.266723 -0.562919)
(10.7999 -0.320268 -0.533142)
(11.0533 -0.350504 -0.574036)
(11.5715 -0.279364 -0.529832)
(11.0474 -0.334614 -0.462625)
(11.7987 -0.312462 -0.409725)
(10.8038 -0.350081 -0.535561)
(11.1739 -0.394559 -0.49841)
(11.2498 -0.390107 -0.402122)
(11.2247 -0.411046 -0.432251)
(9.05959 -0.281316 -0.4538)
(8.99599 -0.269958 -0.447713)
(9.69568 -0.343954 -0.291861)
(9.29588 -0.308167 -0.393241)
(9.36492 -0.317033 -0.364271)
(9.46618 -0.260232 -0.385416)
(10.1536 -0.284105 -0.19311)
(9.89363 -0.324315 -0.395175)
(9.71027 -0.310449 -0.415592)
(10.5885 -0.298872 -0.201578)
(10.4324 -0.283923 -0.216417)
(9.26972 -0.28955 -0.448191)
(10.3216 -0.285478 -0.205094)
(10.1135 -0.286732 -0.315465)
(10.1015 -0.280133 -0.301784)
(10.5715 -0.295906 -0.209149)
(10.4791 -0.283972 -0.222862)
(10.1802 -0.230319 -0.269842)
(11.7725 1.26046 -0.145038)
(11.3905 1.36288 -0.564737)
(11.0827 1.49352 -0.822152)
(12.4123 0.590338 -0.237363)
(12.3232 0.812078 -0.206599)
(11.7861 1.08116 -0.476948)
(11.9843 1.00542 -0.161538)
(12.5275 0.544662 -0.23092)
(12.358 0.81712 -0.179453)
(11.4132 1.06305 -0.78521)
(11.9311 0.795114 -0.590946)
(4.72127 -0.931065 -0.906822)
(4.83965 -0.998689 -0.892979)
(4.72996 -0.819267 -0.928387)
(4.56901 -0.726939 -0.979114)
(3.63158 -0.204238 -1.09276)
(3.14041 0.0618278 -0.879159)
(3.07728 0.181356 -1.11026)
(2.81374 0.217263 -0.955302)
(5.08305 -0.99006 -1.02349)
(5.33359 -1.03727 -1.04262)
(4.61972 -0.820243 -0.92905)
(3.87759 -0.27628 -1.02518)
(3.81563 -0.134959 -1.08241)
(3.62759 -0.233602 -0.895242)
(3.44873 0.00130225 -1.03322)
(3.49965 -0.107838 -0.960579)
(2.95671 0.170681 -1.09137)
(5.20396 -0.959249 -1.01407)
(4.91334 -0.726576 -1.09643)
(5.20177 -0.917941 -1.028)
(4.66812 -0.68748 -1.15175)
(13.367 -0.161909 0.358204)
(13.3732 -0.16758 0.328287)
(13.3731 -0.0992113 0.385299)
(13.3955 -0.129549 0.346052)
(13.3727 -0.11028 0.390051)
(13.352 -0.167507 0.345734)
(13.356 -0.165713 0.360874)
(13.3527 -0.0894198 0.355423)
(13.3253 -0.0772858 0.385893)
(13.2409 -0.0881563 0.402753)
(13.2446 -0.104357 0.373587)
(13.1942 -0.0862378 0.404232)
(13.3506 -0.0978749 0.346468)
(13.2432 -0.0808679 0.401736)
(13.1594 -0.072329 0.383666)
(13.2581 -0.0874915 0.356157)
(13.1675 -0.061093 0.387338)
(12.1101 0.158258 0.787163)
(11.9672 0.173186 0.811508)
(11.6375 0.128768 0.914649)
(10.9886 0.167034 0.922543)
(12.0622 0.154577 0.824986)
(11.939 0.157051 0.878052)
(11.0868 0.444386 0.543705)
(11.0533 0.33826 0.68691)
(11.7462 0.117951 0.908503)
(10.9873 0.173748 0.891908)
(11.2164 0.29471 0.897782)
(8.86537 -0.015252 0.403479)
(8.90433 0.0985551 0.310538)
(8.74299 0.13472 0.359045)
(7.26582 0.108037 0.361433)
(8.06776 -0.00166369 0.392959)
(6.27275 0.198909 0.410028)
(5.65613 0.203461 0.373017)
(6.60137 0.00446435 0.457669)
(7.80235 0.145197 0.442682)
(8.182 0.107497 0.37486)
(6.11175 0.199486 0.380556)
(6.67901 0.217298 0.402511)
(6.39048 0.177156 0.432127)
(12.3438 -0.313592 -0.233742)
(12.3109 -0.291761 -0.225845)
(12.4215 -0.315346 -0.139972)
(12.4421 -0.318152 -0.143489)
(12.252 -0.363026 -0.209252)
(12.2683 -0.350493 -0.199348)
(12.223 -0.334765 -0.272862)
(12.2067 -0.330916 -0.275962)
(12.3911 -0.288999 -0.155995)
(12.4582 -0.308392 -0.168614)
(12.2661 -0.288319 -0.237363)
(12.2822 -0.277368 -0.225909)
(12.4932 -0.312082 -0.135918)
(12.2291 -0.343707 -0.238464)
(12.4504 -0.297537 -0.120549)
(12.421 -0.292101 -0.135544)
(12.2739 -0.288473 -0.215978)
(12.3095 -0.284549 -0.194799)
(12.4129 -0.290988 -0.13223)
(12.4156 -0.295752 -0.129624)
(12.3726 -0.298613 -0.161838)
(12.2986 -0.312374 -0.201033)
(11.8898 -0.513178 -0.471102)
(12.4022 -0.435255 -0.394742)
(11.6502 -0.401442 -0.564473)
(12.4455 -0.33453 -0.437834)
(12.4755 -0.436229 -0.385757)
(11.4095 -0.501694 -0.415915)
(11.5839 -0.350246 -0.576118)
(12.4578 -0.321649 -0.430981)
(12.0139 -0.342868 -0.523817)
(11.3818 -0.4891 -0.382402)
(11.9448 -0.426942 -0.324319)
(11.9949 -0.45896 -0.376993)
(11.2161 -0.413693 -0.605214)
(12.4141 -0.329069 -0.435823)
(11.9968 -0.327977 -0.521246)
(11.0786 -0.426362 -0.634994)
(11.5959 -0.358192 -0.624754)
(12.178 -0.392573 -0.410614)
(12.4562 -0.409665 -0.390122)
(12.4268 -0.395761 -0.410329)
(12.7099 0.276453 0.247785)
(12.5863 0.297694 0.272506)
(12.5628 0.300678 0.352619)
(12.5988 0.286496 0.403244)
(12.6715 0.269588 0.231449)
(12.5923 0.2893 0.26326)
(12.5602 0.281767 0.400842)
(12.5077 0.298233 0.364619)
(12.7519 0.248667 0.321019)
(12.7185 0.233381 0.361701)
(12.7527 0.238915 0.332584)
(12.6683 0.257211 0.251898)
(12.6383 0.256717 0.248901)
(12.5719 0.288892 0.267219)
(12.771 0.235147 0.342302)
(12.7399 0.231169 0.383271)
(12.6764 0.227467 0.322726)
(12.5458 0.281197 0.263394)
(12.4836 0.282156 0.3646)
(12.5281 0.280486 0.414831)
(12.5 0.273509 0.345819)
(12.4843 0.277583 0.392561)
(11.3207 0.121896 0.677347)
(11.3307 0.204847 0.697754)
(12.4035 0.123934 0.667261)
(12.3422 0.143524 0.64952)
(12.223 0.126902 0.724495)
(12.091 0.191157 0.7411)
(12.2635 0.127129 0.686563)
(12.2026 0.1236 0.729335)
(12.0056 0.107089 0.698983)
(11.4492 0.104059 0.654067)
(11.3474 0.0475775 0.641512)
(11.4646 0.0789758 0.645976)
(12.1643 0.208232 0.659247)
(12.2943 0.166924 0.610948)
(12.3623 0.134418 0.634653)
(11.6093 0.100921 0.643258)
(11.8789 0.149104 0.595086)
(12.4881 0.357285 0.694571)
(12.4885 0.438619 0.667221)
(12.7488 0.215117 0.651276)
(12.7298 0.273287 0.613137)
(12.7851 0.233548 0.634042)
(12.8893 0.223279 0.621472)
(12.9434 0.19663 0.605736)
(12.8481 0.338539 0.552737)
(12.8178 0.325446 0.572854)
(12.7578 0.407715 0.541889)
(12.8262 0.392845 0.525079)
(12.9317 0.243017 0.589414)
(12.7912 0.444911 0.51964)
(12.7127 0.448231 0.519891)
(10.9394 0.837192 -0.390869)
(10.8939 0.763435 -0.24149)
(10.8378 0.712515 -0.23971)
(10.8705 0.778565 -0.423883)
(10.8031 0.769915 -0.428657)
(10.9388 0.622633 -0.28774)
(10.8796 0.559954 -0.259597)
(10.9722 0.68821 -0.300957)
(10.9229 0.625012 -0.306351)
(10.8509 0.572953 -0.276708)
(13.0811 -0.183064 0.494105)
(13.0726 -0.200451 0.489949)
(13.0042 -0.141886 0.531232)
(13.0058 -0.14449 0.504278)
(13.046 -0.236237 0.506032)
(13.0289 -0.246936 0.514482)
(13.0407 -0.160445 0.509485)
(13.0236 -0.127907 0.521169)
(13.0266 -0.231576 0.515192)
(13.0005 -0.123053 0.539938)
(13.0069 -0.152989 0.558045)
(13.0073 -0.134719 0.564109)
(13.0081 -0.108843 0.547936)
(12.9878 -0.200472 0.548311)
(13.0244 -0.109213 0.550586)
(13.0157 -0.131616 0.562223)
(12.9848 -0.20078 0.546684)
(8.41204 0.0351484 0.153396)
(8.32776 0.0193159 0.192569)
(8.16916 0.0820706 0.221256)
(7.56354 -0.152242 0.00462194)
(7.54285 -0.101036 -0.0611625)
(8.06178 0.0931722 0.124415)
(8.32503 -0.395105 -0.386821)
(8.34961 -0.338853 -0.353996)
(8.16345 -0.301451 -0.300585)
(7.9828 -0.299984 -0.271244)
(8.24737 0.106848 0.249587)
(8.32164 0.0797547 0.184244)
(8.41265 -0.10755 0.0867741)
(8.42199 -0.0241028 0.0968505)
(7.93142 -0.259808 -0.253255)
(7.93423 -0.180811 -0.221078)
(7.60151 -0.0858314 -0.0988917)
(8.20422 0.0789226 0.116758)
(8.37554 -0.136896 0.0491426)
(8.21796 -0.0388019 0.00861915)
(11.8322 -0.0104321 0.537843)
(11.6862 -0.0733958 0.527814)
(11.6803 -0.012125 0.509054)
(11.7944 0.0141264 0.530793)
(11.6691 -0.11684 0.547456)
(11.3858 -0.0903942 0.53604)
(11.6007 -0.183725 0.525779)
(11.846 -0.0270322 0.484811)
(11.8387 -0.00488304 0.515724)
(11.7835 -0.0668307 0.512703)
(11.413 -0.205762 0.46723)
(11.3563 -0.119302 0.535279)
(11.8092 0.0196709 0.517485)
(11.5661 -0.0867313 0.511227)
(11.573 -0.123866 0.492575)
(11.3187 -0.174036 0.492413)
(3.21996 -0.257214 0.603348)
(3.22498 -0.451842 0.729359)
(2.30231 -0.45223 0.976221)
(2.26817 -0.229394 0.954919)
(6.12417 -0.726051 0.496108)
(4.61287 -0.619508 0.498372)
(7.78677 -0.282781 0.711515)
(5.77494 0.0835634 0.814267)
(3.50542 0.245331 1.20886)
(4.81178 -0.20773 0.979531)
(7.70635 -0.301651 0.590708)
(5.9173 -0.259932 0.769376)
(4.94275 0.210059 0.758567)
(12.3071 -0.0806952 0.876529)
(12.2622 0.00465313 0.94072)
(12.3831 -0.112306 0.857851)
(12.5245 -0.130511 0.785243)
(12.6914 -0.131155 0.73106)
(12.5813 -0.108832 0.796812)
(12.2552 0.0112405 0.960699)
(12.4312 0.0994998 0.812823)
(12.5681 -0.0396263 0.768714)
(12.5161 -0.112338 0.766792)
(12.7887 -0.0696754 0.697596)
(12.4659 0.148561 0.781522)
(11.8036 0.403132 -0.104628)
(11.7555 0.301063 -0.137305)
(11.8072 0.265236 -0.150544)
(11.8997 0.402337 -0.0829692)
(11.8382 0.345268 -0.0869246)
(11.8774 0.318994 -0.10655)
(12.0342 0.383849 -0.106102)
(12.129 0.3943 -0.12426)
(12.0302 0.292173 -0.126058)
(11.9837 0.279051 -0.1246)
(12.0443 0.619316 -0.207222)
(12.132 0.613954 -0.207106)
(11.9622 0.56617 -0.23466)
(12.0264 0.559209 -0.217448)
(11.8671 0.554298 -0.240925)
(11.9155 0.473327 -0.161414)
(11.9371 0.375581 -0.0956022)
(11.9765 0.566343 -0.200723)
(12.0048 0.449002 -0.138412)
(11.6992 -0.438483 0.210773)
(11.6392 -0.394688 0.266358)
(11.9222 -0.332369 0.155028)
(11.898 -0.272028 0.201049)
(11.938 -0.263685 0.225794)
(12.3384 -0.344313 0.338723)
(12.1433 -0.362358 0.322306)
(11.785 -0.368416 0.236189)
(12.102 -0.391073 0.193066)
(12.7943 -0.279211 0.487475)
(12.7969 -0.295906 0.477364)
(11.941 -0.367138 0.311778)
(12.779 -0.334021 0.34598)
(12.557 -0.343405 0.312063)
(12.7386 -0.299452 0.432028)
(12.9073 -0.276832 0.473943)
(12.9367 -0.261046 0.446099)
(12.5988 -0.348246 0.380142)
(12.8759 -0.271103 0.405386)
(0.763591 0.715011 -0.976775)
(1.00396 0.616314 -1.39906)
(1.85332 0.425401 -1.20586)
(1.44676 0.471845 -0.98246)
(1.33802 0.424861 -1.05726)
(1.52925 0.367325 -1.22349)
(2.10257 0.0903178 -1.01514)
(2.38771 0.0134461 -1.07902)
(2.57081 -0.00651891 -1.09228)
(2.66095 -0.0473813 -1.02878)
(3.33161 -0.2937 -0.985749)
(3.35883 -0.326642 -1.03186)
(2.70879 0.19285 -1.08735)
(3.10024 -0.130882 -1.14121)
(2.95283 0.0584923 -1.04274)
(2.18272 0.202847 -1.16625)
(10.9135 0.519562 -0.318)
(10.8308 0.486672 -0.251051)
(10.8813 0.499018 -0.332586)
(10.9772 0.557626 -0.397028)
(10.9019 0.549092 -0.671512)
(10.8267 0.539181 -0.664215)
(10.841 0.492261 -0.307261)
(10.9376 0.56806 -0.538458)
(10.8724 0.574451 -0.658524)
(10.8245 0.539175 -0.667378)
(10.7951 0.412073 -0.379054)
(10.8873 0.475015 -0.490837)
(10.88 0.56273 -0.489655)
(10.7592 0.424518 -0.380088)