/*--------------------------------*- C++ -*----------------------------------*\
  =========                 |
  \\      /  F ield         | OpenFOAM: The Open Source CFD Toolbox
   \\    /   O peration     | Website:  https://openfoam.org
    \\  /    A nd           | Version:  10
     \\/     M anipulation  |
\*---------------------------------------------------------------------------*/
FoamFile
{
    format      ascii;
    class       volScalarField;
    location    "5";
    object      C;
}
// * * * * * * * * * * * * * * * * * * * * * * * * * * * * * * * * * * * * * //

dimensions      [1 3 0 0 0 0 0];

internalField   nonuniform List<scalar> 
75457
(
0.367004
0.366065
0.399808
0.431957
0.384951
0.391196
0.394901
0.385114
0.465801
0.46445
0.464492
0.399071
0.407747
0.450789
0.00102389
0.00143793
0.00335128
0.00244757
0.00193087
0.0022901
0.0020548
0.00261071
0.00229165
0.00255401
0.00358884
0.00170503
0.00124012
1.63057e-06
9.54771e-07
9.94625e-07
6.86257e-07
4.20189e-07
3.42998e-07
1.87966e-06
1.19358e-06
1.79458e-06
2.2747e-06
5.65906e-07
4.62494e-07
8.24884e-07
1.21516e-06
6.22804e-07
1.21554e-06
0.0329912
0.0315335
0.0403131
0.0370796
0.0316956
0.00112907
0.00159712
0.00192683
0.001408
0.000940094
0.00137296
0.00199024
0.00242486
0.00129877
0.00152588
0.00131208
0.00103934
0.00116953
0.00183063
0.5
0.5
0.5
0.5
0.5
0.5
0.5
0.5
0.5
0.5
0.5
0.5
0.5
0.5
0.5
5.44241e-07
1.64218e-08
8.11208e-11
2.18232e-06
1.79887e-07
4.51205e-08
2.09363e-10
3.72147e-10
1.71764e-10
1.26888e-10
2.1685e-10
5.80219e-07
1.5574e-06
1.37875e-08
5.12867e-10
4.51087e-07
4.61461e-09
0.109823
0.129052
0.128443
0.141503
0.105313
0.114238
0.132255
0.121876
0.5
0.5
0.5
0.5
0.5
0.5
0.5
0.5
0.5
0.5
0.5
0.5
0.5
0.5
0.5
0.5
0.5
0.5
0.5
0.5
0.5
0.5
0.5
0.5
0.5
0.5
0.5
0.5
0.5
0.499999
0.499999
0.499999
0.499999
0.499999
0.5
0.5
0.5
0.499999
0.499924
0.499899
0.499904
0.499864
0.499864
0.499815
0.499824
0.499776
0.484461
0.485481
0.487289
0.488043
0.487916
0.490834
0.489619
0.491752
0.492956
0.490952
0.49013
0.490075
0.489418
0.492701
0.491997
0.5
0.5
0.5
0.5
0.5
0.5
0.5
0.5
0.5
0.5
0.5
0.5
0.5
0.443258
0.444301
0.453963
0.440229
0.449495
0.439192
0.440712
0.43264
0.427708
0.434201
0.42948
0.426627
0.420243
0.425496
0.231378
0.216995
0.224887
0.179281
0.164681
0.179154
0.499449
0.4995
0.499349
0.499319
0.499181
0.49915
0.499528
0.499303
0.499361
0.498677
0.498641
0.149681
0.142643
0.133586
0.130934
0.145212
0.126892
0.13338
0.114155
0.101998
0.119705
0.131995
0.120583
0.113179
0.11027
0.498197
0.49757
0.49735
0.496151
0.49688
0.496098
0.497376
0.498003
0.497177
0.497746
0.497146
0.495564
0.498085
0.496634
0.067624
0.0645104
0.0461217
0.0429186
0.0486295
0.053915
0.0648191
0.0590736
0.0547095
0.039124
0.0399155
0.0426164
0.0548741
0.04622
0.0465234
0.0494225
0.0530415
0.0710324
0.0731033
0.0915223
0.0814063
0.105178
0.1005
0.0798009
0.117248
0.132762
0.127333
0.0831539
0.085561
0.0336187
0.0330403
0.029548
0.030163
0.0387795
0.0496173
0.0413072
0.0456239
0.0496021
0.0413033
0.0392672
0.036451
0.0449819
0.394717
0.403895
0.388486
0.425693
0.41814
0.419801
0.414835
0.430211
0.424202
0.405299
0.415017
0.404627
0.429831
0.41142
0.425164
1.15761e-08
1.73449e-08
7.04738e-09
8.58034e-09
8.164e-09
2.88944e-08
1.86628e-08
1.19413e-08
1.97944e-08
3.61813e-12
4.24029e-12
1.20904e-11
7.68779e-12
7.87071e-12
4.56804e-12
5.3469e-12
9.29363e-12
2.82806e-12
3.5978e-12
5.05371e-12
2.77818e-12
4.1467e-12
3.45667e-06
7.93153e-07
4.59948e-07
3.37969e-06
6.01604e-06
4.55436e-06
3.92489e-06
1.82251e-07
2.72272e-07
7.89551e-07
4.1025e-07
0.0399599
0.0431302
0.0494122
0.0466131
0.0415255
0.0333646
0.03667
0.0503413
0.0439074
0.0466901
0.0555421
0.0483319
0.0403696
0.0374355
0.0554544
0.0378838
0.0428121
5.72138e-06
6.06415e-06
1.45975e-06
1.16585e-05
1.71712e-06
9.23044e-06
1.05205e-06
1.81416e-05
1.7335e-05
2.99151e-06
4.07788e-06
7.23469e-05
8.64225e-05
0.000126242
0.000105399
5.16097e-05
7.00605e-05
4.7638e-05
7.36747e-05
8.88581e-05
4.96523e-05
6.79888e-05
5.40774e-08
7.90805e-08
6.97948e-08
1.08394e-07
4.94228e-08
3.65102e-08
6.12476e-08
4.58889e-08
7.49554e-08
1.01002e-07
3.78416e-08
3.22617e-08
6.20691e-08
9.36149e-08
6.37581e-08
2.81932e-05
1.89662e-05
3.91861e-05
4.75012e-05
1.81047e-05
0.0111837
0.0138885
0.0115925
0.0125723
0.0168642
0.0147492
0.0169116
0.49978
0.499716
0.499876
0.499841
0.499727
0.499653
0.499824
0.49975
0.499669
0.499601
0.499859
0.499801
0.499727
0.499705
0.499886
0.499786
0.499752
0.499858
0.499906
0.499916
0.499905
0.499888
0.499921
0.499898
0.499933
0.499919
0.49988
0.499887
0.499913
0.499927
0.499893
0.499609
0.499669
0.499811
0.499838
0.499773
0.499761
0.499817
0.499844
0.499603
0.49963
0.499715
0.499682
0.499804
0.499833
0.49978
0.499854
0.499806
0.499772
0.499812
0.499841
0.499748
0.499845
0.222562
0.203122
0.203398
0.216409
0.21661
0.279525
0.250869
0.267341
0.204517
0.238158
0.211968
0.240013
0.255962
0.223762
0.238847
0.245458
0.434647
0.375631
0.394067
0.402377
0.469871
0.46979
0.427313
0.424691
0.475548
0.476887
0.357083
0.445661
0.429551
0.436276
0.468316
0.473697
0.498779
0.49834
0.498808
0.498963
0.499056
0.499189
0.498553
0.498181
0.498635
0.499052
0.499414
0.499253
0.499281
0.498999
0.498878
0.498653
0.498516
0.498854
0.499952
0.499943
0.499925
0.499936
0.499919
0.499867
0.499845
0.499939
0.499923
0.499904
0.499894
0.499871
0.499892
0.499945
0.499954
0.499959
0.5
0.5
0.5
0.499999
0.5
0.5
0.5
0.5
0.5
0.5
0.5
0.5
0.5
0.5
0.5
0.5
0.5
0.499955
0.499965
0.499987
0.499991
0.499988
0.499984
0.499939
0.49994
0.499983
0.499969
0.499945
0.49998
0.499979
0.499972
0.499941
0.499966
0.49993
0.000109651
0.000176856
0.000254958
0.000157899
0.000206993
0.000113325
0.000139636
8.29205e-05
0.000289618
0.000391727
0.000323659
0.000198883
9.53509e-05
0.000244363
0.000215129
0.000283312
9.91613e-05
0.000139749
0.000522187
0.000778921
0.000584283
0.000460663
0.000409394
0.00047766
0.000401246
0.000437639
0.000301667
0.000334841
0.000347729
0.000215836
0.000248587
0.000303057
0.00159726
0.00145705
0.00151608
0.0024354
0.0021346
0.00183769
0.00145466
0.00213382
0.00191317
0.00202396
0.00239122
0.00187422
0.00229772
0.00236222
0.00278911
0.0024367
0.00309305
0.00281567
0.499516
0.499453
0.499531
0.499588
0.499494
0.499443
0.499604
0.499652
0.499623
0.499719
0.499723
0.499487
0.0589433
0.0713916
0.0756219
0.079506
0.0645929
0.0701267
0.0789786
0.0874138
0.0745037
0.0852386
0.0929285
0.108806
0.110738
0.0962348
0.100021
0.105941
0.000554868
0.000454854
0.00041342
0.000373945
0.000357018
0.000388246
0.00017865
0.000208462
0.000298269
0.000312545
0.000343499
0.000525137
0.000259699
0.000260684
0.000299196
0.000364448
0.499082
0.498801
0.498519
0.498995
0.499034
0.499068
0.499276
0.49827
0.498572
0.498804
0.498808
0.498855
0.499129
0.499377
0.499347
0.498812
0.499069
0.499283
0.498689
0.000162808
0.000114484
7.09736e-05
0.000193396
0.000206554
0.000102545
0.000322211
0.000338503
8.11194e-05
0.00018146
0.000143477
0.000263727
0.000120939
0.000182201
1.06139e-06
7.25275e-07
1.67277e-06
1.815e-06
8.63185e-07
3.26979e-06
3.2927e-06
1.95483e-06
2.41395e-06
6.6305e-06
3.48988e-06
3.3711e-06
7.9367e-06
3.23996e-06
5.04626e-06
4.31599e-06
2.83903e-06
5.99577e-06
0.4591
0.424711
0.419677
0.480808
0.480297
0.431603
0.461584
0.478755
0.478312
0.421811
0.437201
5.12454e-07
7.9662e-07
1.26816e-06
7.15156e-07
1.54674e-07
2.63946e-07
8.1978e-08
1.33401e-07
1.6818e-06
3.37367e-06
2.39502e-06
2.10732e-06
1.23676e-06
8.35366e-07
6.83037e-07
1.00357e-06
2.03569e-07
4.85456e-06
2.76663e-06
4.76382e-06
1.39206e-06
0.308923
0.315782
0.341429
0.329477
0.330861
0.287842
0.296507
0.326918
0.338032
0.298817
0.274053
0.283965
0.312369
0.311086
0.296786
0.288891
0.314556
0.00123925
0.00103607
0.00112599
0.000705324
0.00151628
0.0012678
0.000839415
0.000701478
0.00132792
0.000811074
0.00104846
3.2768e-05
2.29747e-05
2.23676e-05
7.2336e-06
1.63269e-05
2.64633e-06
1.62096e-06
8.09525e-06
9.14399e-06
1.08094e-05
2.02102e-06
2.82144e-06
3.92775e-06
0.000239522
0.000168529
0.00013149
0.000190286
0.000146009
0.000103003
0.000165459
0.000116553
0.000162847
0.000234726
8.54439e-05
0.000124361
0.000222101
8.56445e-05
0.000144588
9.66322e-05
7.54452e-05
9.59164e-05
8.07383e-05
9.64588e-05
0.000118551
6.35086e-05
0.00962425
0.0114146
0.00777184
0.0103256
0.00915989
0.00506414
0.00677223
0.0087454
0.00628937
0.00340284
0.00368803
0.00545208
0.00445845
0.00729621
0.00524215
0.00331927
0.00346525
0.00359562
0.00737875
0.0058294
0.002753
0.0027482
0.00318483
0.00318037
0.00226514
0.00228185
0.00250555
0.00246758
0.00294071
0.00192975
0.00226003
0.00186883
0.00147725
0.00188322
0.00272143
0.00214372
0.00145481
0.00150462
0.00201801
0.00201944
0.00135308
0.00177697
0.00041328
0.000464183
0.00105971
0.00121637
0.000791321
0.00078726
0.00057855
0.000644042
0.000464034
0.000380491
0.000481125
0.000606347
0.000977346
0.000838101
0.000785226
0.000455679
0.000627975
0.0730676
0.0683153
0.076503
0.0798006
0.080142
0.0683411
0.0766725
0.069585
0.0758809
0.0687318
0.0643008
0.06849
0.0607319
0.0630163
0.499964
0.499985
0.499989
0.499973
0.49998
0.499989
0.499992
0.499984
0.499987
0.499991
0.0722414
0.0645628
0.0497665
0.0574298
0.0614987
0.0672501
0.0645854
0.0729842
0.0533189
0.0534533
0.0520097
0.0585463
0.059914
0.0513593
0.0663883
0.0650073
0.0581017
0.0112445
0.0141691
0.0119355
0.0102012
0.0072503
0.00824385
0.0246655
0.020287
0.0146084
0.0136702
0.0131681
0.0103175
0.0154067
0.0110684
0.0145713
0.008948
0.00557763
0.007926
0.0112357
0.00782377
0.499986
0.499969
0.499967
0.499981
0.49997
0.499933
0.499967
0.499986
0.499987
0.499978
0.499949
0.499938
0.499983
0.499957
0.499961
0.499938
0.156137
0.134055
0.0843431
0.0810127
0.259455
0.17659
0.31122
0.235987
0.11202
0.169853
0.299305
0.217626
0.189452
0.031426
0.0331293
0.0348803
0.0423608
0.0389825
0.032819
0.0359051
0.0373286
0.0361114
0.0476817
0.0428929
0.0408295
0.499703
0.499755
0.49969
0.499635
0.499653
0.499636
0.499309
0.499143
0.499379
0.499514
0.499418
0.499283
0.499535
0.499419
0.499668
0.499538
0.499527
0.49954
0.499415
0.121407
0.10786
0.119362
0.110333
0.108416
0.133481
0.116971
0.100166
0.12985
0.123214
0.134
0.0941626
0.149002
0.126996
0.147298
0.128375
0.13918
0.11617
0.151336
2.92196e-10
5.87664e-10
4.26198e-09
1.51721e-09
5.61049e-10
1.20935e-09
3.44617e-10
5.83476e-10
1.85168e-09
1.83609e-09
1.17748e-08
6.18928e-09
1.4317e-08
5.36086e-09
1.65717e-08
2.58517e-09
0.499987
0.499989
0.49998
0.499975
0.499968
0.499976
0.499992
0.499966
0.499972
0.499979
0.499988
0.499979
0.499975
0.499991
0.499995
0.499988
0.319934
0.258958
0.31863
0.256265
0.330894
0.239934
0.361926
0.340269
0.386873
0.395718
0.372316
0.348391
0.265103
0.233442
0.340524
0.362671
0.380624
0.372794
0.357371
0.259771
0.5
0.5
0.5
0.5
0.5
0.5
0.5
0.5
0.5
0.5
0.5
0.5
0.5
0.5
0.5
0.499374
0.499431
0.498666
0.49855
0.498822
0.498906
0.497587
0.49835
0.495657
0.494699
0.495873
0.496951
0.495325
0.496242
0.459879
0.45746
0.472678
0.464543
0.45622
0.457163
0.467282
0.472093
0.470432
0.47714
0.471913
0.47651
0.469204
0.469691
0.47786
0.474669
0.00575246
0.00483546
0.0059729
0.00750344
0.00410426
0.00487694
0.00542595
0.00669742
0.00835892
0.00447571
0.00379135
0.00489057
0.00553535
0.00778585
0.00349954
0.00605167
0.00466687
0.00643169
0.00512357
0.206668
0.151117
0.149077
0.192369
0.215942
0.124751
0.168584
0.162859
0.190709
0.173902
0.1853
0.170402
0.191427
0.178541
0.148562
0.145995
0.251279
0.208728
0.181196
0.181253
0.24805
0.219609
0.171905
0.17768
0.231765
0.5
0.5
0.5
0.5
0.5
0.5
0.5
0.5
0.5
0.5
0.5
0.5
0.5
0.5
0.5
0.5
0.5
0.5
0.5
0.5
0.47379
0.47076
0.47078
0.465023
0.468726
0.470647
0.467072
0.465909
0.468129
0.46181
0.457348
0.461621
0.00163608
0.00200116
0.00100292
0.000985346
0.000753546
0.00214301
0.00204226
0.00166872
0.0012928
0.00142001
0.000882557
0.00107356
0.00111973
0.00132131
0.00144063
0.00143231
0.00164114
0.00185058
3.10155e-05
1.78061e-05
2.45939e-05
1.32382e-05
2.31566e-05
7.01429e-05
5.03963e-05
5.72036e-05
3.76007e-05
1.861e-05
2.57165e-05
3.75762e-05
9.89254e-05
6.70677e-05
4.85537e-05
3.65155e-05
6.97117e-05
4.68156e-05
2.4269e-05
2.01804e-05
2.86669e-05
2.65981e-05
1.4937e-05
2.98326e-05
1.59233e-05
1.10531e-05
4.47437e-05
2.336e-05
3.32973e-05
2.31166e-05
1.53517e-05
1.25557e-05
2.21735e-05
4.94636e-05
3.5454e-05
5.49453e-05
8.05499e-05
7.05575e-05
0.000178954
0.000111627
0.000104582
0.00015201
0.000126097
4.65476e-05
0.196956
0.187921
0.165372
0.193413
0.15175
0.158239
0.147137
0.153775
0.176644
0.183952
0.142955
0.170912
0.00100555
0.000801354
0.000971157
0.000890121
0.00118865
0.00129949
0.00104958
0.00117651
0.00160268
0.00153071
0.00176715
0.001262
0.00125205
0.00143308
0.00147737
0.00157432
0.5
0.5
0.5
0.5
0.5
0.5
0.5
0.5
0.5
0.5
0.0546962
0.0477705
0.0679028
0.0648552
0.0643242
0.0566654
0.0696425
0.0690074
0.0374659
0.0608201
0.0514388
0.0500983
0.0584984
0.0564834
0.0486139
0.0427263
0.0442047
0.0642146
0.00556762
0.00606931
0.00445476
0.00686691
0.00828966
0.00528112
0.0057373
0.00464959
0.00744016
0.0107635
0.00910545
0.00825209
0.00702786
0.0092853
0.00662054
0.00756504
0.00894259
0.00754795
0.499888
0.499854
0.499795
0.499843
0.499745
0.499686
0.499926
0.49989
0.499801
0.499898
0.499813
0.499773
0.499847
0.499753
0.5
0.5
0.5
0.5
0.5
0.5
0.5
0.5
0.5
0.5
0.5
0.5
0.5
0.5
0.5
0.5
0.5
0.5
0.5
0.5
0.360052
0.347225
0.35923
0.38232
0.341169
0.331317
0.337367
0.313954
0.409662
0.37618
0.345207
0.394625
0.403111
0.325524
0.414804
0.410625
0.402919
0.423323
0.42835
0.486795
0.490502
0.488764
0.491897
0.450707
0.448089
0.469726
0.460335
0.487624
0.487293
0.463323
0.482963
0.491487
0.459666
0.445853
0.468274
0.479712
0.468548
0.482103
0.46795
8.34866e-06
1.4377e-05
5.88776e-06
2.0896e-05
1.08422e-05
8.18576e-06
9.58276e-06
6.90845e-06
1.57464e-05
1.13307e-05
5.20631e-06
9.29165e-06
6.53748e-06
1.23653e-05
9.44327e-06
1.27277e-05
3.36202e-05
2.51077e-05
1.68073e-05
0.000102397
0.000164523
0.000255604
0.000169414
0.000140036
8.22967e-05
0.000665371
0.000678302
0.000599586
0.00173518
0.00140466
0.000153196
0.000432529
0.000973929
0.000357139
0.000288536
0.5
0.5
0.5
0.5
0.5
0.5
0.5
0.5
0.5
0.5
0.5
0.5
0.5
0.5
0.5
0.5
0.5
0.5
0.5
0.5
0.496939
0.496961
0.497725
0.497284
0.496974
0.496327
0.496526
0.496151
0.496122
0.497071
0.496565
0.495281
0.495737
0.495404
0.494173
0.493812
0.49571
0.494694
0.494645
0.496233
0.5
0.5
0.5
0.5
0.5
0.5
0.5
0.5
0.5
0.5
0.5
0.5
0.5
0.5
0.5
0.5
0.5
0.000598157
0.000550052
0.000799737
0.000637694
0.000752129
0.000640193
0.00052786
0.000903402
0.000526103
0.000751893
0.000609089
0.000502543
0.5
0.5
0.5
0.5
0.5
0.5
0.5
0.5
0.5
0.5
0.5
0.5
0.5
0.5
0.5
0.5
0.5
0.5
0.5
0.5
0.5
0.5
0.5
0.5
0.5
0.5
0.5
0.5
0.5
0.5
0.5
0.5
0.5
0.5
0.5
0.5
0.5
0.5
0.5
0.499998
0.499998
0.499999
0.499999
0.499998
0.499999
0.5
0.5
0.499999
0.5
0.5
0.5
0.5
0.499999
0.499999
0.49999
0.499997
0.499998
0.499996
0.499994
0.5
0.5
0.5
0.499999
0.5
0.5
0.5
0.5
0.5
0.474058
0.478924
0.469476
0.466387
0.469791
0.465213
0.481092
0.476048
0.470288
0.473387
0.47421
0.480604
0.481965
0.478252
0.48021
0.476922
0.5
0.5
0.5
0.5
0.5
0.5
0.5
0.5
0.5
0.5
0.5
0.5
0.5
0.5
0.5
0.5
0.5
0.5
0.5
0.5
0.5
0.5
0.5
0.5
0.5
0.5
0.5
0.5
0.5
0.5
0.5
0.5
0.5
0.5
0.485325
0.489535
0.488753
0.486188
0.491747
0.475792
0.465262
0.488714
0.466838
0.472063
0.483607
0.473436
0.469922
0.489743
0.000189161
0.000123987
0.000126249
0.000425711
0.499993
0.499994
0.499998
0.499997
0.499995
0.49999
0.499989
0.499997
0.499998
0.499997
0.499995
0.499997
0.499993
0.499989
0.499983
0.499995
0.499988
0.499992
0.499988
0.499995
0.499993
0.499992
7.60221e-05
0.000148071
7.57073e-05
2.30174e-05
5.72365e-05
0.000117131
7.50805e-05
4.58006e-05
7.0323e-05
4.61882e-05
1.38431e-05
3.74869e-05
2.05295e-05
7.04423e-06
2.09536e-05
2.94018e-05
0.000282775
0.000431653
0.000210337
0.000210016
0.000415697
0.00033544
0.000247719
0.000296717
0.00036323
0.000388132
0.000269354
0.000141411
0.000157489
9.86989e-05
0.000247467
0.000180012
0.000256168
0.000315301
0.000228874
0.000191456
0.000127081
0.000170616
0.00173179
0.00197168
0.0026642
0.00202674
0.00316201
0.00411595
0.00260449
0.00313627
0.00143691
0.00389164
0.00315653
0.00345756
0.00258575
0.00239207
0.00196268
0.00415848
0.00382546
0.00310847
0.00290956
0.0284744
0.0229106
0.0169235
0.0186318
0.0220674
0.0187529
0.0248757
0.0311966
0.0137738
0.0150645
0.0136792
0.0146012
0.0118294
0.0191994
0.0143164
0.0263174
0.0185552
0.0142449
0.0102763
0.00866633
0.0117428
0.00774263
0.49856
0.497803
0.497078
0.49772
0.498267
0.49875
0.498768
0.497986
0.497509
0.496578
0.49697
0.497781
0.49712
0.497476
0.49846
0.498443
0.498001
0.496858
0.497974
0.163916
0.148999
0.14573
0.157031
0.167866
0.152017
0.166465
0.184544
0.161279
0.179355
0.160886
0.117019
0.131685
0.131662
0.14004
0.125174
0.144895
0.467947
0.463066
0.459992
0.462133
0.462917
0.457861
0.452579
0.457842
0.457862
0.446882
0.457394
0.454438
0.446757
0.451655
4.31777e-05
6.17333e-05
7.6864e-05
8.44556e-05
0.000110854
0.000130678
5.92498e-05
8.74377e-05
0.0001722
0.000254286
0.000277012
8.78274e-05
0.000121306
0.000172415
0.000182002
8.67614e-05
0.000121256
9.68957e-08
1.30885e-07
1.47301e-07
1.10762e-07
1.30151e-07
1.92438e-07
7.45936e-08
9.66447e-08
2.14977e-07
1.51702e-07
2.44415e-07
2.31522e-07
2.09333e-07
2.77825e-07
7.50667e-08
1.63728e-07
3.64614e-07
3.24617e-07
3.92818e-07
1.91369e-07
1.39027e-07
1.11786e-07
1.00654e-07
6.33877e-08
7.94719e-08
4.93163e-08
9.02727e-08
9.16467e-08
7.44132e-08
1.30903e-07
1.65703e-07
1.20387e-07
1.56914e-07
1.88985e-07
2.41506e-07
2.47823e-07
2.88327e-07
3.5746e-07
1.3545e-07
2.05366e-07
0.000164144
0.000167566
0.000542276
0.000368079
0.000777691
0.000549505
0.000262819
0.000360293
0.000248129
0.000395708
0.000431119
0.000629247
0.000765181
0.00125739
0.000339788
0.000583956
0.000611169
0.498032
0.497604
0.497429
0.497728
0.497419
0.497298
0.496816
0.498237
0.497921
0.497206
0.0124244
0.0131232
0.0186427
0.0159697
0.0205302
0.0185789
0.018121
0.019706
0.0229
0.0197313
0.0255578
0.025402
0.0206951
0.0157156
0.0151836
0.016344
0.0220591
0.0183544
0.081938
0.0709335
0.0728428
0.0651783
0.091138
0.0796772
0.0585604
0.0640946
0.0774054
0.0698778
0.071879
0.0816333
0.0810072
6.32546e-07
4.34626e-07
7.41891e-07
5.14988e-07
5.00981e-07
1.10735e-06
6.43598e-07
4.40603e-07
3.40676e-07
4.99077e-07
8.91358e-07
5.11072e-07
2.82694e-07
3.4538e-07
0.0360091
0.0387525
0.0299014
0.0335735
0.0320428
0.0289591
0.0271577
0.0289675
0.0253161
0.0207155
0.0220159
0.0251149
0.0193154
0.0223009
0.0234581
8.68021e-11
2.76162e-10
8.90104e-11
3.43574e-11
6.62046e-10
1.85304e-10
1.76085e-06
6.13419e-07
8.88044e-11
3.99564e-10
6.71664e-06
2.00464e-06
2.38017e-09
4.7055e-09
1.7632e-09
1.18161e-08
1.82404e-08
5.16151e-07
0.5
0.5
0.5
0.5
0.5
0.5
0.5
0.5
0.5
0.5
0.350893
0.347999
0.329687
0.33108
0.373529
0.361098
0.371424
0.385636
0.376164
0.363351
0.366789
0.321216
0.316351
0.358502
0.35589
0.367036
0.348228
0.334817
0.328647
0.338005
0.324738
0.34752
8.81031e-09
6.49578e-09
2.65807e-08
1.45298e-08
5.36813e-09
3.56054e-09
1.77273e-08
4.65687e-08
8.19004e-08
8.76876e-09
7.81631e-09
8.88971e-09
2.9263e-08
2.89345e-08
5.08188e-08
2.04695e-08
2.16056e-08
8.92553e-09
0.5
0.5
0.5
0.5
0.5
0.5
0.5
0.5
0.5
0.5
0.5
0.5
0.5
0.5
0.5
0.5
0.5
0.5
0.5
0.433209
0.426059
0.459199
0.448357
0.358341
0.35144
0.255088
0.229716
0.216365
0.196889
0.363136
0.38497
0.435277
0.413723
0.191245
0.184061
0.226237
0.345441
0.5
0.5
0.5
0.5
0.5
0.5
0.5
0.5
0.5
0.5
0.5
0.5
0.5
0.5
0.5
0.5
0.499961
0.499986
0.499982
0.499971
0.499976
0.499966
0.499976
0.499969
0.499983
0.499979
0.499964
0.499972
0.499959
0.499998
0.499996
0.499998
0.499999
0.499997
0.499996
0.499999
0.499999
0.499999
0.499999
0.499999
0.499999
0.499998
0.499999
0.499998
0.49999
0.499985
0.499985
0.499981
0.499993
0.499982
0.499986
0.499979
0.499995
0.499994
0.499993
0.49998
0.499993
0.499995
0.499981
0.499978
0.5
0.5
0.5
0.5
0.5
0.5
0.5
0.5
0.5
0.5
0.5
0.5
0.5
0.5
0.5
0.5
0.5
0.5
0.5
0.5
0.406617
0.402143
0.407505
0.450302
0.438903
0.446276
0.416106
0.441702
0.440522
0.456187
0.464157
0.426824
0.453174
0.44587
0.429981
0.429456
0.434703
0.408071
0.438921
0.410493
0.436168
0.439973
0.416695
0.425753
0.424447
0.44778
0.411197
0.423358
0.474105
0.48175
0.481567
0.463161
0.441702
0.5
0.5
0.5
0.5
0.5
0.5
0.5
0.5
0.5
0.5
0.5
0.5
0.5
0.5
0.5
0.0104511
0.0103598
0.0131621
0.0154689
0.0131255
0.0109622
0.00875678
0.00889679
0.00883625
0.5
0.5
0.5
0.5
0.5
0.5
0.5
0.5
0.5
0.5
0.5
0.5
0.5
0.5
0.5
0.5
0.5
0.5
0.5
0.5
0.5
0.5
0.498866
0.499081
0.499193
0.498579
0.49882
0.499111
0.498655
0.499012
0.499195
0.498791
0.498871
0.498148
0.498268
0.498552
0.497753
0.498036
0.498512
0.498918
0.497895
0.498525
0.499992
0.499991
0.499986
0.49999
0.499992
0.499974
0.499972
0.499988
0.499984
0.499989
0.49998
0.499967
0.499974
0.499974
0.499967
0.499988
0.499986
0.499991
0.499955
0.499983
0.499974
0.499983
0.499972
0.499925
0.499948
0.499957
0.19569
0.20359
0.190652
0.180739
0.250846
0.23373
0.223978
0.238049
0.210244
0.259323
0.241624
0.175629
0.186762
0.191751
0.197612
0.225846
0.190607
0.175182
0.216199
0.215269
0.235189
0.253523
0.241182
0.211603
0.226287
0.208183
0.471992
0.46922
0.475615
0.471457
0.473603
0.476162
0.479843
0.462128
0.468828
0.459537
0.464181
0.464939
0.456354
0.473707
0.477238
0.477379
0.476259
0.469204
0.499833
0.499783
0.499704
0.499735
0.499784
0.499668
0.499647
0.499726
0.499808
0.499678
0.49962
0.499657
0.499758
0.5
0.5
0.5
0.5
0.5
0.5
0.5
0.5
0.5
0.5
0.5
0.5
0.5
0.0389863
0.0374456
0.036093
0.0347092
0.0327561
0.0335016
0.0280187
0.0263203
0.0264114
0.0358848
0.0299577
0.0299749
0.0324122
0.0338239
0.0332944
0.0357129
0.0327048
0.029087
0.0297472
0.0274491
0.0371719
0.0392376
0.0354132
0.0375382
0.0461587
0.0461225
0.040906
0.0426375
0.0618718
0.0679024
0.0724141
0.0680849
0.0771627
0.0764893
0.0892393
0.0828118
0.0978163
0.086956
0.0915204
0.0811505
0.0735052
0.0813597
0.0935316
0.0891148
0.157798
0.159995
0.101804
0.10919
0.1416
0.150926
0.116945
0.112417
0.12332
0.142184
0.152564
0.154508
0.132531
0.129734
1.53492e-06
2.46087e-06
1.42125e-05
1.53419e-05
5.75543e-06
1.8484e-05
4.39162e-06
1.72706e-06
7.98897e-06
1.16204e-05
1.85318e-06
0.499983
0.499983
0.499988
0.499995
0.499997
0.499991
0.499995
0.499992
0.499994
0.499996
0.499988
0.499991
0.499992
0.498188
0.498698
0.497652
0.497199
0.497904
0.499224
0.498786
0.498829
0.499247
0.498786
0.499383
0.49911
0.499312
0.499422
0.499035
0.499597
0.499239
0.499361
0.499324
0.499603
0.499048
0.499588
0.499981
0.499986
0.499982
0.499985
0.499989
0.499986
0.499991
0.499991
0.499995
0.499992
0.499994
0.499956
0.499972
0.499947
0.499964
0.49997
0.499981
0.499976
0.499982
0.499996
0.499995
0.499988
0.499984
0.499987
0.499992
0.49999
0.499992
0.499992
0.499991
0.499991
0.5
0.5
0.5
0.5
0.5
0.5
0.5
0.5
0.5
0.5
0.5
0.5
0.5
0.496861
0.497445
0.497488
0.497008
0.497834
0.498195
0.498427
0.498333
0.498542
0.497825
0.498105
0.496316
0.49586
0.497881
0.498491
0.496587
0.497094
0.495584
0.497093
0.496735
0.49752
0.162457
0.171616
0.172933
0.188306
0.169537
0.157475
0.194093
0.195226
0.205198
0.189365
0.216867
0.217146
0.174316
0.184651
0.183573
0.191551
0.18194
0.20063
0.125067
0.0732961
0.103758
0.0925329
0.114565
0.0816829
0.142878
0.128394
0.0752358
0.136279
0.110666
0.0734336
0.106283
0.0965746
0.0764133
0.0777557
0.116973
0.0904222
0.0609728
0.12453
0.0709849
0.0848989
0.0950368
0.112102
0.0787278
0.0608463
0.067356
0.00012337
0.000145357
0.000193172
0.000157871
0.000245178
0.427831
0.414296
0.43101
0.449422
0.415496
0.453145
0.412788
0.291834
0.306291
0.374022
0.306782
0.295309
0.396483
0.346385
0.453431
3.54623e-08
6.5551e-08
2.94389e-06
1.29726e-06
2.58812e-08
5.3429e-06
2.72513e-06
1.58631e-08
1.17862e-08
2.11265e-06
4.5e-06
2.26719e-07
6.94108e-07
2.38981e-06
1.73553e-06
5.61434e-07
2.39177e-07
6.13872e-07
0.498947
0.498817
0.498537
0.498669
0.493677
0.492782
0.495828
0.495634
0.498079
0.498353
0.492268
0.490633
0.487378
0.488233
0.497883
0.4986
0.496891
0.490276
0.491446
0.496671
0.416763
0.42211
0.427949
0.431233
0.438996
0.439787
0.422299
0.416007
0.413024
0.432243
0.43575
0.441328
0.434504
0.432107
0.491577
0.494233
0.484283
0.484674
0.494973
0.493295
0.488555
0.492827
0.494375
0.487207
0.486674
0.486735
0.493748
0.492733
0.494709
0.492499
0.494574
0.493497
0.357844
0.328271
0.321223
0.25931
0.242721
0.298983
0.326433
0.415276
0.263191
0.324268
0.384437
0.378502
0.392917
0.384095
0.353021
0.41189
0.284681
0.317937
0.405141
0.39255
0.414012
0.418668
0.496518
0.495722
0.494291
0.493684
0.496693
0.495383
0.496188
0.497842
0.497344
0.49579
0.49514
0.49529
0.49611
0.497357
0.496833
0.493926
0.496779
0.495986
0.494466
0.495324
0.499826
0.499744
0.499636
0.499955
0.499653
0.499918
0.499409
0.4995
0.49951
0.4999
0.499876
0.499804
0.499922
0.49991
0.499755
0.000608339
0.000289856
0.000463451
0.000608471
0.0010246
0.00041492
0.000560631
0.00208347
0.463459
0.46078
0.473959
0.475003
0.471045
0.467991
0.472177
0.464709
0.469199
0.465404
0.458966
0.461632
0.474942
0.478784
0.479007
0.475299
0.472527
0.476305
0.472822
0.480212
0.47714
0.481812
0.477956
0.481591
0.472937
0.474658
0.469531
0.479472
0.482875
0.480578
0.464482
0.466108
0.45533
0.459771
0.470866
0.469177
0.458003
0.458092
0.458719
0.457649
0.462424
0.466075
0.468244
0.453836
0.454856
0.467207
0.464045
0.459761
6.16095e-06
4.30665e-06
5.08554e-06
6.85769e-06
7.18053e-06
1.16917e-05
9.8284e-06
6.64119e-06
9.29043e-06
1.01935e-05
9.21811e-06
1.4061e-05
1.53954e-05
1.9367e-05
8.82949e-06
1.36286e-05
1.78161e-05
1.46935e-05
3.0154e-05
2.47664e-05
1.30494e-05
2.07085e-05
0.5
0.5
0.5
0.5
0.5
0.5
0.5
0.5
0.5
0.5
0.5
0.5
0.5
0.5
0.5
0.5
0.00471054
0.00235423
0.00603575
0.00972021
0.0125649
0.0174813
0.03226
0.0190112
0.0274851
0.0320263
0.0470048
0.0388369
0.0303578
0.0221442
0.0229462
0.054037
0.0418724
0.0284589
0.00146864
0.000615613
0.000469988
0.00108437
0.000955738
0.00121582
0.000660633
0.000490544
0.00104737
0.000817054
0.00123065
0.00157692
0.001815
0.00198389
0.00100158
0.00142843
0.499666
0.499724
0.499641
0.499542
0.499544
0.499538
0.499429
0.499631
0.499738
0.499496
0.499573
0.499755
0.499687
0.499771
0.499387
0.499399
0.499456
0.499204
0.499404
0.499482
0.489258
0.487754
0.475961
0.479216
0.495462
0.493908
0.496946
0.493815
0.487576
0.487082
0.496992
0.49433
0.494971
0.494263
0.497458
0.497315
0.23619
0.233282
0.270493
0.266833
0.259278
0.269352
0.299128
0.256572
0.28564
0.2768
0.264175
0.292665
0.000196937
0.00015934
0.000195223
0.000124287
0.00014558
0.000160528
0.000144257
0.000216365
0.000100978
0.000109741
0.000114955
0.000102145
0.000160685
0.000161387
8.27888e-05
8.28415e-05
0.000125158
0.349082
0.34007
0.272815
0.295936
0.312589
0.330004
0.349034
0.367992
0.355226
0.341633
0.341944
0.322484
0.29732
0.304148
0.316077
0.323727
0.320295
0.335021
0.448199
0.44621
0.451476
0.457021
0.452721
0.452417
0.4545
0.459739
0.458957
0.475194
0.471723
0.463938
0.466982
0.479966
0.477378
0.466395
0.472222
0.467026
0.470865
0.465114
0.488234
0.489432
0.49365
0.493139
0.491023
0.490063
0.493255
0.49347
0.48994
0.491467
0.491498
0.492096
0.5
0.5
0.5
0.5
0.5
0.5
0.5
0.5
0.5
0.5
0.5
0.5
0.5
0.5
0.5
0.5
0.5
0.5
0.5
0.5
0.5
0.5
0.5
0.5
0.5
0.5
0.5
0.5
3.64514e-06
3.96693e-06
5.90238e-06
5.20388e-06
3.04532e-06
4.32258e-06
1.8351e-06
3.42331e-06
2.88974e-06
6.1098e-06
1.06375e-05
6.93358e-06
2.71925e-06
4.38926e-06
6.65249e-06
0.497898
0.498207
0.498917
0.498571
0.497936
0.498273
0.498614
0.498392
0.498984
0.499185
0.49757
0.497525
0.498181
0.498345
0.498705
0.498104
0.498614
8.76064e-06
5.61669e-06
1.09896e-05
1.23073e-05
0.000103961
7.10883e-05
1.99157e-05
1.55586e-05
0.000116576
0.000179761
8.04625e-06
5.83965e-05
0.000149376
3.13551e-05
0.000110673
0.000101874
0.000105476
7.81378e-05
0.00030976
0.000317482
0.000442665
0.000184732
0.00315293
0.00272825
0.00213163
0.00253965
0.00298958
0.00281346
0.00308732
0.00381718
0.00318219
0.0039347
0.0036758
0.00378324
0.00246309
0.00332894
0.00282189
0.0358783
0.0435096
0.0373203
0.0319757
0.0366135
0.0265751
0.0244862
0.0294494
0.0300687
0.0263208
0.0209617
0.0319988
0.0279941
0.0324719
0.0220993
0.0258508
0.0176479
0.0195933
0.0369166
0.02954
0.0150378
0.0132998
0.011585
0.0170247
0.0228291
0.0279822
0.0186126
0.0142234
0.0275472
0.0219351
0.0103891
0.0241285
0.0194659
0.0170372
0.499395
0.499284
0.499154
0.499369
0.499267
0.499153
0.499477
0.499464
0.498973
0.499568
0.499435
0.499376
0.49906
0.499293
0.499488
0.499563
0.499421
0.499143
0.499309
0.499151
0.499935
0.4999
0.49997
0.499947
0.499875
0.499874
0.499937
0.499846
0.499956
0.499964
0.499972
0.499847
0.5
0.5
0.5
0.5
0.5
0.5
0.5
0.5
0.5
0.5
0.5
0.5
0.5
0.5
0.5
0.00207172
0.00221583
0.00178074
0.00192634
0.00087367
0.00102161
0.00135835
0.000678119
0.000938297
0.0019887
0.0016986
0.00136301
0.00148956
0.000591437
0.0017264
0.00100148
0.089762
0.0953571
0.0817358
0.0802293
0.0899028
0.0820221
0.0753888
0.068643
0.0760032
0.0697592
0.0660622
0.0599634
0.0580461
0.499932
0.499984
0.499967
0.499997
0.499981
0.499917
0.499998
0.499997
0.499999
0.499999
0.499965
0.499909
0.499998
0.492267
0.495629
0.409245
0.423705
0.463088
0.438249
0.492699
0.496004
0.49661
0.495673
0.492735
0.486997
0.495521
0.497434
0.49657
0.49488
0.478912
0.497238
0.497761
0.496591
0.499999
0.499998
0.499993
0.499994
0.499991
0.499996
0.499998
0.499998
0.499995
0.499996
0.499998
0.499997
0.499997
0.499998
3.02221e-05
2.22331e-05
3.32636e-05
4.70723e-05
1.72058e-05
2.12752e-05
7.12443e-05
5.79543e-05
3.94955e-05
2.60802e-05
5.94953e-05
4.22746e-05
4.19516e-05
1.60462e-05
2.28426e-05
2.22571e-05
2.7809e-05
3.13338e-05
0.000464415
0.00041559
0.000667226
0.000718192
0.000559902
0.000514967
0.000403981
0.000480251
0.000438463
0.000559309
0.000773804
0.000827952
0.000473576
0.000312859
0.000315754
0.000218994
0.000212217
0.000280217
0.000322065
0.000650567
3.31023e-05
3.54566e-05
2.76104e-05
6.86844e-05
5.25434e-05
0.00571493
0.0051773
0.00638861
0.00542377
0.00681836
0.00778765
0.00601256
0.00662276
0.00492567
0.00614787
0.00544624
0.00534647
0.00579523
0.00488909
0.0796195
0.0879247
0.0751268
0.0813594
0.0722879
0.0780125
0.0986373
0.0810766
0.0913755
0.0677264
0.0726399
0.499997
0.499998
0.499998
0.499997
0.499995
0.499994
0.499996
0.499997