/*--------------------------------*- C++ -*----------------------------------*\
  =========                 |
  \\      /  F ield         | OpenFOAM: The Open Source CFD Toolbox
   \\    /   O peration     | Website:  https://openfoam.org
    \\  /    A nd           | Version:  10
     \\/     M anipulation  |
\*---------------------------------------------------------------------------*/
FoamFile
{
    format      ascii;
    class       volScalarField;
    location    "5";
    object      eff_dif;
}
// * * * * * * * * * * * * * * * * * * * * * * * * * * * * * * * * * * * * * //

dimensions      [0 2 -1 0 0 0 0];

internalField   nonuniform List<scalar> 
75457
(
-0.0488532
-0.0442025
-0.0409328
-0.037079
-0.031847
-0.0343691
-0.0441868
-0.0447209
-0.0311101
-0.0249036
-0.0287304
-0.0321261
-0.0319139
-0.0289407
-0.00442804
-0.00524372
-0.00554686
-0.00505905
-0.0058552
-0.00542485
-0.00454081
-0.00564094
-0.00536555
-0.00582894
-0.00571162
-0.00637317
-0.00566319
-0.00104747
-0.00106242
-0.000652956
-0.000476711
-0.000595431
-0.000606198
-0.000667056
-0.000366067
-0.00111254
-0.000972243
-0.00117588
-0.00132124
-0.000461846
-0.00083971
-0.000445655
-0.000844116
-0.0129251
-0.012818
-0.0118962
-0.0119945
-0.0125371
-0.00608001
-0.00675852
-0.00717266
-0.00655141
-0.00645746
-0.00661137
-0.00716388
-0.0072744
-0.00688301
-0.00718261
-0.00655983
-0.00679792
-0.00657186
-0.00647555
0.0256872
0.0259813
0.025716
0.0260791
0.0263524
0.0263645
0.0259863
0.0260282
0.02634
0.0261151
0.0257895
0.026107
0.0260897
0.0257326
0.0259755
-0.00701091
-0.00813841
-0.00646962
-0.00819554
-0.0104831
-0.0047437
-0.00483083
-0.00709669
-0.00807701
-0.00708634
-0.0073623
-0.00488753
-0.00637075
-0.00471922
-0.00499091
-0.00645762
-0.00525506
-0.0101714
-0.010401
-0.0104076
-0.0107576
-0.010373
-0.0101864
-0.011361
-0.0106114
0.0270513
0.0269422
0.0272005
0.0272176
0.027086
0.0269377
0.026857
0.0273047
0.027307
0.0269245
0.0269336
0.0178704
0.0185248
0.0209453
0.0205262
0.0179285
0.0194865
0.0195201
0.0189973
0.0193506
0.0210119
0.0207996
0.0213334
0.0218649
0.0206367
0.0200822
0.018901
0.0212873
0.0202993
0.00967245
0.00964421
0.00909997
0.00995645
0.00957388
0.0110272
0.0107281
0.0106117
0.0106145
0.00415589
0.00371387
0.00426032
0.00382319
0.00329418
0.00376559
0.00379882
0.00289649
-0.00989137
-0.00991723
-0.00935514
-0.00953422
-0.00987525
-0.00956233
-0.00932323
-0.00888389
-0.00739059
-0.00747095
-0.0088542
-0.00859026
-0.00820047
-0.00882439
-0.00775825
0.0120948
0.01366
0.0138953
0.0132411
0.0136542
0.0100072
0.0113837
0.0129127
0.0119289
0.012871
0.010222
0.00894032
0.00952206
-0.012289
-0.0127231
-0.0125857
-0.01276
-0.0125326
-0.0126734
-0.0121078
-0.0128501
-0.0126423
-0.0128489
-0.0128215
-0.0127641
-0.0126737
-0.0127176
-0.0114319
-0.00975716
-0.0120578
-0.0100581
-0.00992028
-0.0117773
0.00510775
0.00580777
0.00441807
0.00536134
0.00356606
0.0043141
0.00679485
0.00642743
0.00562702
0.00291289
0.00284917
-0.0113147
-0.0111478
-0.0115305
-0.0114752
-0.0114737
-0.0113893
-0.0112162
-0.0110846
-0.0106128
-0.0114954
-0.0112994
-0.0110335
-0.0113887
-0.0109444
0.00106738
0.000215575
0.000554644
-0.000981967
-0.000502201
0.000118142
-0.000109273
0.001139
0.000713627
-5.70705e-05
-0.000678778
-0.00118629
0.000836099
-0.000680149
-0.0106435
-0.0107266
-0.0101527
-0.0100074
-0.0104131
-0.010332
-0.0106576
-0.0105532
-0.010877
-0.0100278
-0.0103679
-0.00974512
-0.0105017
-0.0107729
-0.0104073
-0.0102152
-0.0104955
-0.0140481
-0.0136898
-0.0137016
-0.0136165
-0.0150522
-0.0134856
-0.0136522
-0.0128822
-0.0134554
-0.0141564
-0.0129458
-0.013986
-0.0129659
-0.0130138
-0.0131112
-0.0130928
-0.0126895
-0.0125598
-0.0129289
-0.0126805
-0.0124672
-0.012838
-0.0127906
-0.0126467
-0.0125916
-0.00811729
-0.00795254
-0.0081654
-0.00780209
-0.0078069
-0.00766383
-0.00749195
-0.00748949
-0.00746639
-0.00780656
-0.00808635
-0.00794699
-0.00739524
-0.00770887
-0.00771702
-0.00023887
-0.000164687
-0.000152092
-0.00031504
-0.000102702
-0.00012145
-0.00047047
-0.000397237
-0.000166896
0.000165311
0.00129604
0.000346837
0.000793444
0.000998795
0.00223842
0.00088257
0.000612386
0.00122797
0.000489645
0.000578557
-0.000260006
0.000317637
-0.00262342
-0.0038696
-0.000666732
-0.00188446
-0.00302841
-0.00433259
-0.00421006
-0.00159785
-0.00370267
-0.00411069
-0.00370369
-0.00962363
-0.00975171
-0.00993867
-0.00993218
-0.00981821
-0.00956704
-0.00960578
-0.0100337
-0.0102436
-0.0100252
-0.0102451
-0.00944201
-0.0097265
-0.00984397
-0.0100124
-0.00972106
-0.00991091
-0.012183
-0.0116875
-0.0114005
-0.0132619
-0.0173215
-0.0162643
-0.0160878
-0.0142752
-0.0147382
-0.0133044
-0.0150792
-0.00355846
-0.00430224
-0.00499947
-0.00489663
-0.00440564
-0.00449875
-0.00375495
-0.00460045
-0.00498137
-0.00410585
-0.00437708
-0.000191291
-0.000165137
-0.000301004
-0.00039049
-0.000143997
-0.000125085
-0.000387385
-0.000163343
-0.000422051
-0.000541615
-0.000473577
-0.000209796
-0.000386029
-0.000794965
-0.000687041
-0.00557631
-0.00372998
-0.00689927
-0.0056805
-0.00532563
-0.00921466
-0.0097695
-0.00921687
-0.00970045
-0.00975383
-0.00919547
-0.0102548
0.0446491
0.0494025
0.0380339
0.0407046
0.0434568
0.045411
0.0452173
0.0480204
0.0404006
0.0448488
0.0432625
0.0442037
0.0400863
0.0445667
0.0390613
0.0403665
0.0422969
0.0374319
0.0293483
0.0288947
0.0295464
0.0302147
0.0311418
0.0320414
0.0296184
0.0302843
0.0326116
0.0359712
0.0327725
0.033094
0.0348701
0.0204256
0.0176716
0.0153152
0.0169865
0.0213127
0.0180201
0.0166323
0.0181116
0.0177043
0.0158061
0.0230174
0.0230248
0.0164288
0.0179766
0.0153262
0.0213918
0.0235335
0.0236746
0.0197746
0.019742
0.0203264
0.0216117
-0.0127782
-0.0134346
-0.0136466
-0.013633
-0.0137655
-0.0129325
-0.0131069
-0.0132785
-0.0133808
-0.0128981
-0.0134693
-0.0130219
-0.0132155
-0.0130636
-0.0132526
-0.0131336
-0.0403922
-0.0450916
-0.0276162
-0.0336574
-0.025798
-0.0338461
-0.0318309
-0.0293671
-0.0253061
-0.0313761
-0.050423
-0.0445678
-0.0299094
-0.0403695
-0.0268077
-0.0276172
-0.00129166
-0.00143055
-0.00126481
-0.000487444
-0.000157331
0.000445523
-0.00163562
-0.00193696
-0.000347383
-0.000375079
0.000452778
0.000108224
-0.000128114
-0.000190089
-0.000376959
-0.000988516
-0.00168003
-0.000934157
0.0285729
0.0328888
0.031498
0.0278567
0.029183
0.0319962
0.0354345
0.0344614
0.0296395
0.0355324
0.0372863
0.035466
0.0316314
0.0284008
0.0291931
0.0300411
0.0218087
0.0211925
0.0217021
0.0214771
0.0206816
0.0223955
0.0229843
0.0223899
0.0217492
0.022743
0.0221777
0.0213651
0.0222078
0.0206446
0.0213124
0.022822
0.023304
0.00828335
0.00810069
0.00784382
0.00817221
0.0081739
0.0082682
0.00837299
0.00837699
0.00834731
0.0082208
0.00795888
0.00805637
0.00842939
0.00812098
0.00833652
0.00757101
0.00761784
-0.00471122
-0.0056463
-0.00718657
-0.00605545
-0.00545762
-0.00515244
-0.00506271
-0.00478906
-0.00615259
-0.00595373
-0.00698165
-0.00692701
-0.00551301
-0.00558506
-0.00727733
-0.00615342
-0.00541739
-0.00636733
-0.00453026
-0.00486235
-0.00435918
-0.00449032
-0.00398918
-0.00402602
-0.00408353
-0.00417236
-0.00362547
-0.00389872
-0.00398893
-0.00347322
-0.00334815
-0.00375515
-0.0073578
-0.00670057
-0.00767373
-0.00855281
-0.00871151
-0.00813605
-0.00763818
-0.00745917
-0.00742469
-0.00882809
-0.00865095
-0.00843914
-0.00783054
-0.00734436
-0.00779131
-0.00834356
-0.008505
-0.00871832
0.0158603
0.011609
0.0124588
0.0193809
0.0156663
0.0097548
0.0126329
0.0130588
0.00944644
0.0178914
0.0129103
0.0100097
-0.0116501
-0.0113577
-0.010931
-0.0108946
-0.0112899
-0.011329
-0.00960856
-0.0102799
-0.0113243
-0.0109907
-0.0111039
-0.0101913
-0.0104592
-0.0111206
-0.0109991
-0.01089
-0.00515294
-0.00564047
-0.00467403
-0.00508541
-0.00593724
-0.00603073
-0.00552406
-0.00436216
-0.00427949
-0.0045617
-0.00461943
-0.00559979
-0.00583299
-0.00480365
-0.00439363
-0.00529869
0.00120368
0.000500749
-0.000162238
0.00292105
0.00382417
0.00142458
0.00208991
-0.000979673
0.000578127
0.00122355
0.00280353
0.00172836
0.00273175
0.00349128
0.00321475
0.000240269
0.000346
0.00157207
-0.000217802
-0.00236098
-0.00171199
-0.00214462
-0.00382038
-0.00291443
-0.00211132
-0.00394979
-0.00363373
-0.0023955
-0.00280141
-0.00283072
-0.00392058
-0.0027183
-0.00256598
-0.000347188
-0.000281998
-0.00111559
-0.00113655
-0.00088773
-0.000985822
-0.000969879
-0.000755903
-0.000984013
-0.00085161
-0.00107168
-0.0008004
-0.00119708
-0.000863555
-0.000824019
-0.000855013
-0.000784706
-0.00108156
-0.00668106
-0.00723875
-0.00640518
-0.00517795
-0.00573383
-0.00913783
-0.00674459
-0.00642103
-0.0065272
-0.00748383
-0.00887145
-0.0079347
-0.00819986
-0.00862556
-0.0085372
-0.00897636
-0.00953562
-0.00865596
-0.00993303
-0.00667184
-0.00661946
-0.0092215
-0.0102605
-0.00974698
-0.00939335
-0.008904
-0.00995892
-0.00860325
-0.00823886
-0.00870014
-0.00917468
-0.00767121
-0.0135259
-0.0135786
-0.0132296
-0.0134634
-0.0131525
-0.0134124
-0.0134584
-0.0132471
-0.0130189
-0.013087
-0.0133464
-0.0130859
-0.0132783
-0.0130683
-0.0132014
-0.0131535
-0.0131413
-0.00771643
-0.00784203
-0.00971746
-0.0103039
-0.00848645
-0.0088703
-0.00995818
-0.00998519
-0.00895942
-0.0100284
-0.00904955
-0.00326331
-0.00314007
-0.00242807
-0.00156321
-0.00211897
-0.00122683
-0.00180092
-0.000641937
-0.00212276
-0.0017788
-0.00205615
-0.00188891
-0.00103556
-0.00298245
-0.00263938
-0.00270989
-0.00308188
-0.00292522
-0.00230307
-0.00277177
-0.00248334
-0.00310278
-0.00306839
-0.00231833
-0.00230062
-0.00278466
-0.00194556
-0.00272331
-0.00242678
-0.00202046
-0.00248298
-0.00209505
-0.00250078
-0.00267755
-0.00206001
-0.00821746
-0.00830063
-0.00842907
-0.00823843
-0.00769357
-0.00691977
-0.00816302
-0.00677004
-0.00743769
-0.00613075
-0.00649846
-0.0070343
-0.00780135
-0.00671198
-0.00685407
-0.00819744
-0.00707445
-0.00616694
-0.00650246
-0.00604
-0.00794814
-0.00803194
-0.00833447
-0.00833526
-0.00747715
-0.00752762
-0.00815923
-0.008151
-0.00802272
-0.00680215
-0.00719759
-0.00719027
-0.0068477
-0.00733841
-0.00732148
-0.00758438
-0.00675314
-0.0068642
-0.00747885
-0.00756196
-0.00680386
-0.00692579
-0.00624014
-0.00755987
-0.006767
-0.00748238
-0.00690584
-0.00806425
-0.00608746
-0.00598848
-0.00555262
-0.00641244
-0.00711092
-0.00682411
-0.00759272
-0.00664787
-0.00634492
-0.00694394
-0.00671782
-0.00894358
-0.00853512
-0.00990189
-0.00920691
-0.0100363
-0.0108058
-0.0103889
-0.0101033
-0.00959777
-0.00964771
-0.0105221
-0.0105782
-0.0110341
-0.00999127
0.0167598
0.017436
0.018388
0.0171769
0.0180118
0.0169014
0.0179565
0.0167033
0.0172276
0.0182753
-0.0122751
-0.012065
-0.0113506
-0.0114037
-0.0123774
-0.012213
-0.0116636
-0.0118656
-0.0121906
-0.0113283
-0.011848
-0.0115416
-0.0116511
-0.0121504
-0.011682
-0.0120226
-0.0121404
-0.0144606
-0.013853
-0.0152307
-0.0148346
-0.0148331
-0.0154794
-0.0139317
-0.014407
-0.0137578
-0.0139065
-0.0145423
-0.0148544
-0.0135796
-0.0145213
-0.014427
-0.0142772
-0.0144016
-0.0150106
-0.0141242
-0.0141735
0.00775615
0.00816748
0.00891228
0.00830053
0.00792826
0.00915733
0.0056167
0.00718286
0.00742168
0.00713425
0.00642855
0.00857129
0.00800915
0.00858642
0.0076941
0.00725837
-0.0154381
-0.0164669
-0.015283
-0.0144913
-0.0154571
-0.0129086
-0.014557
-0.0151193
-0.0151321
-0.0157164
-0.0120333
-0.0134831
-0.014815
-0.0137603
-0.0145617
-0.0129943
-0.0125334
-0.012454
-0.0133754
-0.0136228
-0.0140112
-0.012521
-0.0122395
-0.0120287
-0.0129909
0.00704939
0.0060349
0.00569937
0.00579404
0.00576197
0.00437063
0.0040309
0.00347273
0.00357166
0.00408459
0.0041579
0.00327406
0.00485727
0.00406197
0.0057114
0.00583033
0.00400162
0.00502344
0.00463841
-0.0121763
-0.0121591
-0.0132311
-0.0128319
-0.0140819
-0.0123635
-0.0119063
-0.0129618
-0.0128717
-0.0121419
-0.0120057
-0.0130728
-0.0132833
-0.0138066
-0.0128026
-0.0124768
-0.0122526
-0.0133285
-0.0127778
-0.00575285
-0.0073261
-0.00627045
-0.00564739
-0.00645059
-0.00726344
-0.0066839
-0.00601385
-0.00613862
-0.00794615
-0.00780131
-0.00707608
-0.0067842
-0.00643808
-0.00758023
-0.00791567
0.0155114
0.0160373
0.0152431
0.0150976
0.0161496
0.0171073
0.0171755
0.0161051
0.0159949
0.0168535
0.0170598
0.0160926
0.0171756
0.0176547
0.0184093
0.017796
-0.0125476
-0.0146639
-0.0111803
-0.0117882
-0.0143309
-0.0163363
-0.00830285
-0.00935477
-0.0123782
-0.0141651
-0.0113836
-0.0120867
-0.0135776
-0.0164946
-0.0149873
-0.0100216
-0.0142133
-0.0121318
-0.0141561
-0.0164264
0.0535824
0.0475961
0.0433453
0.043017
0.0520666
0.0533344
0.0468332
0.0516455
0.0458398
0.0478467
0.0454245
0.0459287
0.0427157
0.0425797
0.0483014
0.0166514
0.0152213
0.0199703
0.021402
0.0192194
0.0162924
0.0217963
0.0183484
0.0208222
0.0240915
0.0229372
0.02421
0.0260381
0.0236508
-0.0166577
-0.0173785
-0.0168935
-0.0176155
-0.0158943
-0.0161828
-0.0146661
-0.0136105
-0.0157183
-0.0156364
-0.0140185
-0.0135834
-0.0160862
-0.0145668
-0.0142349
-0.0148029
-0.00673968
-0.00633203
-0.00642061
-0.00652305
-0.00624139
-0.00671713
-0.00646368
-0.00676309
-0.00696169
-0.00602665
-0.00602642
-0.005996
-0.00678815
-0.0067752
-0.00598425
-0.00649258
-0.00639178
-0.00684931
-0.00657719
-0.0139508
-0.0138791
-0.0135549
-0.014524
-0.0145448
-0.0145256
-0.0136259
-0.0146294
-0.0144326
-0.0128934
-0.0134532
-0.0134278
-0.0136984
-0.0134075
-0.014813
-0.0145294
-0.012982
-0.0134957
-0.0133091
-0.0133195
-0.0129107
-0.0129908
-0.0135697
-0.0129187
-0.0129671
0.0252237
0.0243421
0.0243802
0.0248882
0.0250787
0.0246249
0.0243917
0.0244529
0.0251738
0.0249409
0.0250205
0.0247421
0.0249028
0.0246577
0.0250056
0.0250626
0.0250395
0.024811
0.0244464
0.0251422
-0.00970479
-0.0104948
-0.00964682
-0.0102198
-0.00971029
-0.00935648
-0.00951725
-0.0102822
-0.00931635
-0.0096545
-0.00987471
-0.0100288
-0.00540976
-0.005386
-0.00483539
-0.00458474
-0.00437497
-0.0054402
-0.00546864
-0.00567949
-0.00524896
-0.0046268
-0.00457064
-0.00485216
-0.0051173
-0.00450465
-0.00474571
-0.00487262
-0.00494166
-0.00481992
-0.00328118
-0.00311399
-0.00338766
-0.00308203
-0.00322073
-0.00362292
-0.003698
-0.00389699
-0.00392891
-0.00314809
-0.0036002
-0.00327127
-0.00395972
-0.00383313
-0.00341815
-0.0032184
-0.00398935
-0.00365585
-0.00317913
-0.00238432
-0.00250468
-0.00269571
-0.00184024
-0.00228093
-0.00212337
-0.00183812
-0.00275923
-0.00245056
-0.00288198
-0.00264898
-0.00196373
-0.00196276
-0.00218508
-0.00294731
-0.00287017
-0.00700817
-0.00651791
-0.00712872
-0.00700308
-0.0063732
-0.00625599
-0.00633304
-0.00721734
-0.00737097
-0.0129833
-0.0127262
-0.012715
-0.0129985
-0.0129972
-0.0130306
-0.0128083
-0.0131374
-0.012886
-0.0128436
-0.0130345
-0.0129071
-0.00492065
-0.00459991
-0.00490029
-0.00484811
-0.00490404
-0.00504618
-0.00508283
-0.00510339
-0.00528587
-0.00505078
-0.00563319
-0.00545667
-0.00547699
-0.00560829
-0.00543873
-0.00547811
0.0252372
0.0253896
0.0252076
0.0249181
0.0245173
0.0245022
0.0241091
0.0240579
0.0243683
0.02494
-0.00972442
-0.00953428
-0.00981823
-0.00958565
-0.00984414
-0.0097487
-0.0100356
-0.00998982
-0.0100145
-0.0100836
-0.00983009
-0.00966265
-0.00990554
-0.0102339
-0.0101111
-0.0098996
-0.00983097
-0.00987607
-0.00643648
-0.00692285
-0.00640027
-0.00655152
-0.00651553
-0.00647383
-0.00675863
-0.00644302
-0.00667139
-0.00717315
-0.00683779
-0.00704855
-0.00678409
-0.00699409
-0.00640436
-0.00668944
-0.00688713
-0.00664583
0.00496609
0.00437333
0.00382843
0.00474145
0.00286707
0.00238717
0.00530326
0.00481028
0.00359444
0.00495394
0.00398726
0.00315105
0.00384304
0.00386359
0.0256577
0.0255612
0.0254191
0.0252528
0.0257124
0.0252783
0.0250941
0.0251303
0.0254503
0.0252559
0.0254582
0.0255849
0.025126
0.0250991
0.0249878
0.025029
0.0254214
0.025213
0.0253729
0.0251273
0.0396633
0.0381601
0.0312448
0.0344593
0.0240802
0.0282401
0.0143113
0.029535
0.0295984
0.026873
0.0325301
0.0229642
0.0343941
0.0395131
0.035544
0.0431764
0.024554
0.0359683
0.0313821
-0.0163085
-0.0175366
-0.0128923
-0.0120732
-0.0173717
-0.0204681
-0.0203724
-0.0232153
-0.0128737
-0.0128575
-0.0259946
-0.0224676
-0.015776
-0.0195274
-0.0222864
-0.0162529
-0.0168611
-0.023581
-0.0194215
-0.0202944
-0.00050067
-0.00108723
-0.000696433
-0.00104793
-0.00124747
-0.000760172
-0.00184941
-0.000807691
-0.00128284
-0.00130247
-0.000848247
-0.00113247
-0.00143986
-0.000749047
-0.0016283
-0.0017238
-0.00158031
-0.00145361
-0.000922138
-0.0147351
-0.015587
-0.0199983
-0.0209044
-0.0170729
-0.016368
-0.0155516
-0.0168558
-0.019373
-0.0161374
-0.0174846
-0.0173834
-0.0186421
-0.0186095
-0.0193981
-0.0190932
0.0278779
0.0278292
0.0276958
0.0277722
0.0280389
0.0280547
0.0279345
0.0279602
0.0277728
0.0276419
0.0281475
0.0279248
0.0280909
0.0280885
0.0277225
0.0276404
0.0278028
0.0279679
0.0280986
0.0277042
-0.00312966
-0.00324613
-0.0027006
-0.00229651
-0.00504818
-0.00511187
-0.00547194
-0.0062862
-0.00437188
-0.00307312
-0.00275647
-0.00504529
-0.00534749
-0.00585143
-0.00655335
-0.00647053
-0.00430229
-0.00598467
-0.00577268
-0.00475567
0.0278141
0.0276676
0.0277493
0.0277916
0.0277809
0.0278182
0.0277441
0.0278652
0.0279342
0.0279539
0.0280256
0.0277178
0.0278788
0.0278734
0.027971
0.0279564
0.0278305
-0.00617573
-0.0060368
-0.00625797
-0.0065075
-0.00638908
-0.00603974
-0.00580333
-0.00624027
-0.00636834
-0.0065162
-0.00586808
-0.00546819
0.0256989
0.0255219
0.0260801
0.0260885
0.0258338
0.025788
0.0254218
0.0256336
0.0258861
0.0260386
0.0260829
0.0257128
0.0255163
0.0256363
0.0254494
0.0256374
0.0254305
0.0257075
0.0257742
0.0254308
0.0256798
0.0189852
0.0185442
0.0186341
0.0190579
0.0191225
0.0182824
0.0186843
0.0203397
0.0205227
0.0203186
0.0195989
0.0192523
0.018861
0.0187759
0.0188418
0.0195076
0.0194296
0.0193955
0.00541117
0.00568683
0.00573616
0.00530312
0.00559133
0.0062832
0.00590952
0.00591286
0.00570375
0.00684633
0.00663601
0.00689655
0.00672757
0.00581321
0.0055348
0.0462884
0.0412233
0.0354239
0.0368575
0.0431951
0.0412038
0.0525729
0.0380516
0.0449353
0.0398515
0.0521972
0.0519477
0.0476869
0.0410264
-0.00536097
-0.00519691
-0.00539997
-0.00575896
-0.00571641
-0.00582775
-0.00545815
-0.00549104
-0.00557466
-0.00544433
-0.00598304
-0.00597201
-0.00572915
-0.00514511
-0.00531821
-0.00560723
0.0219141
0.0198803
0.0214936
0.0197155
0.0193903
0.0197681
0.0200915
0.0201479
0.0209834
0.021387
0.0238112
0.023308
0.0223501
0.0246176
0.0252002
0.0226471
0.0236754
0.0269517
0.0268997
0.026486
0.026594
0.0266891
0.0267579
0.0269753
0.0270193
0.0264437
0.0265689
0.0269267
0.0269449
0.0269055
0.0267699
0.02673
0.0268968
0.0266911
-0.021939
-0.0194711
-0.0192511
-0.0236705
-0.0189782
-0.0244017
-0.0310702
-0.0186672
-0.0220745
-0.0221226
-0.0211289
-0.0229934
-0.0249272
-0.0198153
-0.0184768
-0.0183164
-0.0146213
-0.0160137
0.0136067
0.0132827
0.0149059
0.0145893
0.0138432
0.0125725
0.0129477
0.0145073
0.0150279
0.0146263
0.0143555
0.0146817
0.0129603
0.012715
0.0120956
0.0139345
0.0127751
0.0133803
0.0123768
0.0138881
0.0131877
0.0129599
-0.0060643
-0.00660978
-0.00640785
-0.00641949
-0.00465356
-0.00488181
-0.00326324
-0.00335725
-0.00494092
-0.00543248
-0.00580646
-0.00446627
-0.00344696
-0.0035178
-0.00333395
-0.0033512
-0.00486156
-0.00541558
-0.00460446
-0.00474456
-0.00523572
-0.00497994
-0.00474246
-0.00513661
-0.00544429
-0.00527354
-0.00531464
-0.00453001
-0.00455721
-0.0044365
-0.00463769
-0.00460921
-0.00537921
-0.00538336
-0.00528292
-0.00494983
-0.00455268
-0.00501616
-0.00599126
-0.00606148
-0.00611508
-0.00623494
-0.00646152
-0.00659592
-0.00605406
-0.00651858
-0.00583795
-0.00616155
-0.00575083
-0.00645125
-0.00549877
-0.00577234
-0.00556847
-0.00650418
-0.00592671
-0.00565454
-0.00643712
-0.00645368
-0.00589261
-0.00544216
-0.00789599
-0.00505923
-0.00194644
-0.00907667
-0.00883728
-0.000160056
-0.00234258
0.00180498
-0.00438023
0.000357445
-0.00465111
-0.00313439
-0.00719357
-0.00709862
-0.00367867
-0.00250367
0.00219902
-0.00138645
0.0024114
0.00226973
0.000798997
0.000172699
0.000600014
0.00115
0.00268452
0.00255174
0.0016662
0.000956751
0.000191503
0.000524215
0.000614347
0.000331624
0.00130899
0.00115215
0.00225736
0.00106016
0.000345823
0.000959326
-0.0107132
-0.0102649
-0.0104127
-0.0105346
-0.0106789
-0.010677
-0.0109475
-0.0112341
-0.0106715
-0.0113124
-0.0108283
-0.0105275
-0.01062
-0.0105315
-0.0106351
-0.0105402
-0.0106117
-0.00764437
-0.00778431
-0.00903121
-0.0086108
-0.00840269
-0.00864452
-0.00882219
-0.00855433
-0.00800624
-0.00872484
-0.00819095
-0.00873399
-0.00841172
-0.00848442
-0.00328831
-0.00357366
-0.00372026
-0.00399827
-0.00419105
-0.00432745
-0.00328622
-0.00437873
-0.00470086
-0.00511573
-0.00512046
-0.00361389
-0.00395862
-0.00473445
-0.00480217
-0.00360213
-0.00411791
-2.71706e-05
-5.37398e-05
-0.000200562
-1.95958e-05
-0.000112071
-0.000154661
-0.000143156
1.04949e-05
-0.000121935
-0.000158758
-0.000297733
-0.000494171
-0.000654747
-0.000412224
-0.000175921
-0.000282349
-0.000390386
-0.000439195
-0.000393305
-0.000545209
-0.000269394
-0.000162105
-0.000611241
-5.90744e-05
-0.000271271
-0.000292203
-0.000348139
-0.000511775
-0.0002949
-0.000347308
-0.000407124
-4.08191e-05
-0.000130573
-0.00034906
-0.000545142
-0.000217678
-0.000283395
-0.000526158
-0.00017002
-0.000288595
-0.0152249
-0.0177428
-0.0210536
-0.0211984
-0.0203378
-0.0207647
-0.0158413
-0.0185081
-0.0200009
-0.0146717
-0.0169649
-0.0180119
-0.0196953
-0.0184087
-0.0180623
-0.018042
-0.016696
-0.00265713
-0.00263955
-0.00303285
-0.00183371
-0.00244264
-0.003255
-0.00352713
-0.00175953
-0.00203977
-0.00296129
-0.0114812
-0.0115973
-0.0119884
-0.0123488
-0.0114757
-0.011399
-0.0115717
-0.0122928
-0.0121388
-0.0118654
-0.0118678
-0.0115029
-0.0116713
-0.0110822
-0.0110989
-0.0114068
-0.0114352
-0.0114335
-0.0100234
-0.00998252
-0.0100858
-0.00970369
-0.0101958
-0.00987518
-0.00988389
-0.00979933
-0.00951379
-0.00959078
-0.0101864
-0.0103197
-0.00997792
-0.000572646
-0.00038967
-0.000751606
-0.000486333
-0.000736248
-0.00107099
-0.000848022
-0.000292504
-0.000219608
-0.000571667
-0.000946856
-0.000922985
-0.000285114
-0.000327957
-0.0111327
-0.0110661
-0.0113742
-0.0112743
-0.0109316
-0.0110381
-0.0112813
-0.0111086
-0.0110957
-0.0110026
-0.0109998
-0.011294
-0.0109403
-0.0107346
-0.0114579
-0.0240843
-0.0222465
-0.0211899
-0.0234185
-0.0221009
-0.0217897
-0.024284
-0.0256734
-0.0256591
-0.0262005
-0.0262764
-0.0271668
-0.0222913
-0.0229381
-0.0241393
-0.0229037
-0.0235613
-0.0261655
0.026938
0.0269334
0.0271794
0.0265438
0.0266544
0.0266137
0.0267211
0.0265463
0.026856
0.0268362
-0.0111038
-0.0111757
-0.0112275
-0.0114233
-0.0110958
-0.0113929
-0.0110318
-0.011102
-0.010912
-0.0109862
-0.0110649
-0.0113521
-0.011437
-0.0112083
-0.0114569
-0.0110021
-0.0112001
-0.0111918
-0.0110449
-0.0112224
-0.0112819
-0.0111698
-0.003768
-0.00378718
-0.00355722
-0.00357955
-0.00353241
-0.00262136
-0.00346307
-0.00368251
-0.00270465
-0.00292758
-0.0025882
-0.00221277
-0.00268307
-0.00286385
-0.00253187
-0.00205476
-0.00226948
-0.00339327
0.0285411
0.0295201
0.0307554
0.0294491
0.0280807
0.0305273
0.0286798
0.0296265
0.0259575
0.0278785
0.0294301
0.0266258
0.0269299
0.0256721
0.0244206
0.0275407
0.0253788
0.0242372
0.0253009
0.0298614
0.0278244
0.0267006
0.0241929
0.029197
0.0305467
0.0316895
0.0312554
0.0356305
0.0344621
0.0320562
0.0349321
0.0279972
0.0272973
0.0357333
0.0368501
0.0333315
0.0362969
0.0276355
0.0277532
0.0278008
0.0276076
0.0277259
0.0276115
0.0277965
0.0277257
0.0275662
0.0277156
0.0275053
0.0275371
0.0277772
0.0277042
0.0277135
0.0277863
0.0271203
0.0228856
0.0224421
0.0247162
0.0258593
0.0277322
0.0258115
0.0259113
0.0221851
0.0214854
0.026031
0.0239869
0.0254817
0.0227143
0.0247316
0.0226018
0.0223382
0.0234554
0.0240072
0.0230597
0.0237338
0.0247682
0.0245744
0.023938
0.0231642
0.024804
0.0251675
0.0246161
0.01987
0.0194899
0.0216494
0.0230856
0.0113055
0.0103481
0.0202641
0.0201831
0.0110103
0.0132442
0.0156921
0.0157825
0.0173128
0.0148115
0.012551
0.0104017
0.0258379
0.0250124
0.0253689
0.0258849
0.0250877
0.0264007
0.0259973
0.0252021
0.025209
0.0280185
0.0275925
0.0272605
0.0267155
0.0256193
0.0267506
0.0261867
0.0272154
0.026607
0.0259705
0.027506
0.00713926
0.00872477
0.00362628
0.000664418
0.00183193
0.00444531
0.0118622
0.00358468
0.00732742
0.00725733
0.0011709
0.00606051
0.0067174
0.00379059
0.00672852
0.0131484
0.0131918
0.011604
0.00969297
0.00799138
0.0169537
0.0140979
0.0140545
0.0112731
0.0152387
0.0152047
0.0152484
0.0126522
0.0113005
0.0123427
0.0123795
0.0131175
0.0135316
0.0267429
0.0268015
0.0265759
0.0264706
0.0271856
0.0271673
0.0266716
0.0265071
0.0273528
0.027348
0.0267416
0.0270451
0.027329
0.0272877
0.0271696
-0.0119801
-0.011777
-0.012646
-0.0127962
-0.0133754
-0.0123262
-0.0121295
-0.013853
-0.0136287
0.0295992
0.0287266
0.0277379
0.0276961
0.028406
0.0278314
0.0300407
0.0274922
0.0312595
0.0298376
0.0276416
0.0294856
0.0301059
0.0304399
0.0309183
0.0267499
0.0270515
0.0288128
0.0309414
0.0296169
0.0272213
0.0280852
0.00124142
0.00196088
0.00140906
-0.000636149
0.00042856
0.00143225
-0.00167558
-0.00028534
-3.03018e-05
-0.00201799
-0.000934702
-0.003064
-0.0021262
-0.00308433
-0.00357431
-0.00284204
-0.0016573
-5.35139e-05
-0.00394337
-0.00116698
0.0255398
0.0239164
0.0285167
0.0241748
0.0260015
0.0325849
0.0298991
0.026061
0.0298358
0.0252021
0.027578
0.033365
0.0311994
0.03198
0.0354359
0.0288219
0.0282632
0.0264975
0.0309522
0.0249134
0.0280859
0.0258971
0.0295672
0.0340589
0.0349697
0.0329618
-0.0108858
-0.0118861
-0.0113546
-0.0108134
-0.0112876
-0.012068
-0.0113551
-0.0110365
-0.012399
-0.0110436
-0.0113112
-0.011677
-0.0109958
-0.0106722
-0.0105328
-0.0109404
-0.0109435
-0.0117502
-0.0111244
-0.0104934
-0.0105785
-0.0106085
-0.0104678
-0.0109051
-0.0105958
-0.0108707
-0.00821617
-0.00781013
-0.00844319
-0.00875235
-0.00813135
-0.00831496
-0.00802423
-0.00641259
-0.00830524
-0.00575709
-0.00813448
-0.00744022
-0.00680785
-0.00763419
-0.00854474
-0.00857433
-0.00792204
-0.00762809
0.00803838
0.00752849
0.0041751
0.00602055
0.00481313
0.00290494
-0.00047075
0.00410119
0.00442168
0.00196559
-0.00272135
0.000864972
0.00238699
0.0228599
0.0236576
0.0239958
0.0226533
0.0243297
0.0241012
0.0245134
0.0236755
0.0237844
0.0228121
0.0229553
0.0248536
0.0242489
-0.0139951
-0.0139461
-0.0145147
-0.014188
-0.0141832
-0.0145042
-0.0159882
-0.015315
-0.0169869
-0.0149773
-0.0152205
-0.0144824
-0.0162384
-0.0128779
-0.0113575
-0.011198
-0.0116789
-0.0119486
-0.0124844
-0.0125012
-0.0129244
-0.0114115
-0.0116398
-0.0120053
-0.0117071
-0.0113596
-0.0116264
-0.0115583
-0.0110177
-0.0106854
-0.010938
-0.0110195
-0.0110736
-0.0107372
-0.0105911
-0.0105367
-0.0103914
-0.0107535
-0.0108603
-0.0110445
-0.0110634
-0.0108886
-0.010613
-0.0107938
-0.0118589
-0.0114349
-0.0115677
-0.0113445
-0.011517
-0.011284
-0.0114347
-0.0119205
-0.0116041
-0.0111759
-0.0116267
-0.0117035
-0.0116195
-0.0122212
-0.00432271
-0.00487506
-0.00521179
-0.00391856
-0.00495032
-0.00578026
-0.00557673
-0.00470139
-0.00447997
-0.00478611
-0.00483694
0.0203079
0.0218394
0.0209482
0.0221238
0.0213841
0.022228
0.0213569
0.0206128
0.0218175
0.0209214
0.0221988
0.0200909
0.0216252
0.0297351
0.0326315
0.0350905
0.0434219
0.0412857
0.0297052
0.0470234
0.0461708
0.0332216
0.0387837
0.0313032
0.0334302
0.0420251
0.0459674
0.0487186
0.0367907
0.0386276
0.0355492
0.0452134
0.0431972
0.0413169
0.0383754
0.0307504
0.030879
0.0306445
0.0294352
0.0292478
0.0279486
0.0284196
0.0286918
0.0281844
0.0270769
0.0272073
0.0173836
0.0167227
0.0164991
0.0160701
0.0184828
0.0179823
0.0163888
0.0177486
0.0170204
0.0161449
0.0153244
0.0155455
0.0171968
0.0186441
0.0188254
0.0161669
0.01562
0.0177736
0.0150663
0.0291635
0.0294481
0.0293445
0.0293438
0.0300825
0.029908
0.0296992
0.0295456
0.0295394
0.0299447
0.0306915
0.0304155
0.0308441
-0.013854
-0.00952024
-0.00678253
-0.0106637
-0.0089089
-0.00421688
-0.0043907
-0.00434411
-0.00315328
-0.00739225
-0.00509648
-0.0138105
-0.0171882
-0.00768409
-0.00462663
-0.0111768
-0.0085022
-0.0172309
-0.011958
-0.0178893
-0.0108151
-0.010572
-0.010557
-0.0105955
-0.0106867
-0.0103094
-0.0104148
-0.0106259
-0.0110595
-0.0104935
-0.0103706
-0.0109846
-0.0107254
-0.0104212
-0.0105026
-0.0104101
-0.0104937
-0.010196
-0.0105013
-0.0126817
-0.0141241
-0.0115114
-0.0115324
-0.0111156
-0.0135588
-0.0122236
-0.0120934
-0.0118591
-0.0120051
-0.0135724
-0.0156
-0.0132489
-0.0131504
-0.0113588
-0.00932698
-0.0110933
-0.0106374
-0.00976152
-0.0114693
-0.0136449
-0.0105975
-0.00881578
-0.00988545
-0.00927265
-0.0111104
-0.0101344
-0.00311924
-0.00354508
-0.00383823
-0.00371187
-0.00396305
-0.0117972
-0.0136028
-0.0120821
-0.0136836
-0.0174009
-0.0121501
-0.0154774
-0.0180285
-0.0179438
-0.023033
-0.0245713
-0.019739
-0.019813
-0.0206407
-0.0156712
-0.0018624
-0.00210468
-0.00117309
-0.0023289
-0.00288091
-0.00206577
-0.00291955
-0.00203516
-0.00313597
-0.00130183
-0.00103459
-0.00235944
-0.00245168
-0.00241652
-0.000580042
-0.00168844
-0.00250674
-0.001647
0.0111496
0.00895071
0.00414016
0.0117177
-0.00308162
-0.013975
0.0112956
0.000921815
0.0105013
0.00427801
0.00512625
-0.026727
-0.0208644
-0.039978
-0.00194608
-0.00266988
-0.00511213
-0.01699
-0.00852933
-0.00204215
-0.0192946
-0.0188177
-0.019006
-0.0175714
-0.0178784
-0.0169045
-0.0167666
-0.0165894
-0.0178278
-0.0179405
-0.0162562
-0.0167942
-0.0172684
-0.0164737
-0.0145454
-0.0128802
-0.0133347
-0.0153679
-0.0110767
-0.0117774
-0.0131891
-0.0153248
-0.0128995
-0.0123166
-0.0151617
-0.0139994
-0.0101427
-0.0108988
-0.0101093
-0.0105196
-0.0107139
-0.0109475
-0.00612272
-0.00695666
-0.00581522
-0.00844831
-0.0117916
-0.00695274
-0.0143866
-0.0131285
-0.0141789
-0.0140354
-0.00341854
-0.00353917
-0.0040489
-0.0055985
-0.00842902
-0.00948312
-0.0102552
-0.010812
-0.00512949
-0.0082445
-0.00572741
-0.0058152
-0.00675327
-0.00842861
-0.0085241
-0.00790405
-0.0050884
-0.00502965
-0.00616051
-0.0032876
-0.00329379
-0.00644822
-0.00856125
-0.00545303
-0.00436659
-0.00319748
-0.00265664
-0.00691598
-0.00447795
-0.00483466
-0.00622037
-0.00490354
0.00989974
0.0104963
0.0075566
0.0079022
0.0106435
0.00872517
0.00822242
0.00890616
0.00939309
0.00888202
0.00782818
0.00833265
0.00852448
0.0075364
0.0103497
-0.0141979
-0.00998695
-0.0110894
-0.013193
-0.0152977
-0.0136495
-0.00977252
-0.0140262
-0.00816186
-0.0077511
-0.00869929
-0.00849034
-0.0085856
-0.00894285
-0.00889245