/*--------------------------------*- C++ -*----------------------------------*\
  =========                 |
  \\      /  F ield         | OpenFOAM: The Open Source CFD Toolbox
   \\    /   O peration     | Website:  https://openfoam.org
    \\  /    A nd           | Version:  10
     \\/     M anipulation  |
\*---------------------------------------------------------------------------*/
FoamFile
{
    format      ascii;
    class       volScalarField;
    location    "5";
    object      k;
}
// * * * * * * * * * * * * * * * * * * * * * * * * * * * * * * * * * * * * * //

dimensions      [0 2 -2 0 0 0 0];

internalField   nonuniform List<scalar> 
75457
(
1.6704
1.76002
1.15912
0.648691
1.41223
1.51937
1.42452
1.54788
0.442044
0.422474
0.365331
1.15974
1.02084
0.467193
0.00341083
0.00282272
0.00590838
0.00592122
0.00258021
0.00346195
0.00436872
0.00277921
0.00550481
0.00351548
0.00345775
0.00554356
0.00432002
0.00552669
0.0146324
0.00168832
0.00153451
0.0228051
0.0233923
0.00666731
0.00429808
0.0082358
0.00590033
0.0298353
0.0196013
0.0115512
0.0160245
0.00989483
0.00524878
0.0218866
0.0360913
0.0135666
0.0117282
0.0223321
0.539655
0.146199
0.322079
0.479129
1.12867
0.316969
0.175423
0.195397
0.887215
0.860667
0.733178
1.20251
1.0026
0.608402
0.454258
0.321973
0.0557834
0.330371
0.0897622
0.376498
0.483512
0.90925
0.464173
0.988652
0.363174
0.0291095
0.453336
0.129556
0.135844
2.85764
2.01101
1.38743
2.94692
2.53351
2.46933
1.38426
1.19554
1.33607
1.5535
1.74349
2.63293
2.07771
2.11675
1.77423
1.85694
1.61312
0.875924
0.318838
0.341261
0.379448
1.67397
0.816376
0.770383
1.2003
0.118594
0.00360992
0.0401689
0.0558029
0.187037
0.0405872
1.07598
0.3092
0.376815
0.778317
0.877231
0.703053
0.0679833
0.833987
1.28289
0.45762
0.448696
1.53624
0.0188172
0.0719252
0.0771053
0.186496
0.444508
0.271133
0.86281
0.439978
0.846102
0.093312
0.169569
0.901145
0.273928
0.586363
0.518895
0.866603
0.360573
0.742346
0.709516
1.30101
0.134732
0.264616
0.45912
0.151708
0.188566
0.650221
0.58597
0.52318
1.21373
0.696373
1.82546
1.09914
0.284549
0.202267
0.609704
0.982683
0.643305
1.34648
0.412698
0.867332
1.30479
0.314283
0.988731
0.00522866
0.00544928
0.00562072
0.0054745
0.00557914
0.00503468
0.00500311
0.00519254
0.00554296
0.00511
0.00532502
0.00517551
0.005048
0.678895
0.723585
0.873163
1.10792
0.960103
1.19053
0.693493
0.899274
1.40867
0.523549
0.715441
0.846065
1.3343
2.77949
0.826459
0.326956
0.734599
0.885261
0.555766
1.50398
0.108123
0.248042
0.189388
0.143691
0.0949205
0.577515
0.723172
0.74655
0.481217
0.525917
0.900785
1.49061
1.44424
1.45484
1.16322
1.16952
1.5236
1.68164
1.03547
0.997933
1.74088
1.11224
1.85119
1.81395
1.64274
0.912577
0.939195
1.27784
0.880406
0.949572
1.81655
0.890477
0.829411
0.968166
0.23449
0.221803
1.24992
0.661584
0.877699
0.720494
1.0911
0.374866
0.396411
0.430121
0.454222
0.985411
1.17142
0.837638
1.17282
0.911502
0.683892
0.827943
1.08851
1.54478
1.03782
1.19478
0.621667
1.12754
0.653999
0.759651
0.387214
0.197925
0.285981
0.0402323
0.110461
0.1319
0.316459
0.33212
0.902885
1.57856
1.11251
2.09191
1.43386
1.39498
1.62016
1.33486
0.793575
0.826695
0.87991
0.743971
0.953212
0.876892
1.16734
0.839203
1.04756
1.01413
0.95633
0.905404
0.764033
0.836031
0.67402
0.275418
0.31432
0.493141
0.409595
0.468117
0.655137
0.965552
1.06304
1.26847
1.10768
0.896286
0.935941
1.11054
0.929191
0.552691
1.20658
0.23856
0.237808
0.337923
0.137802
0.275059
0.182255
0.856889
0.17749
0.178926
0.320619
0.172234
1.10499
2.70964
1.80509
0.947256
0.767366
1.2258
0.656438
0.931578
1.14173
1.13326
1.26849
0.463452
0.401689
0.421038
0.934127
1.04634
0.559636
0.5257
1.05645
1.22024
0.496755
0.518541
1.13101
1.06072
1.7862
1.03975
1.02604
1.62498
0.0809017
0.289616
0.275618
0.285962
0.24601
0.251713
0.324449
0.196937
0.177174
0.460466
0.272759
0.45148
1.064
1.10665
1.25612
2.2519
0.812598
0.689826
1.31986
1.39087
1.41127
1.30859
0.303225
0.298903
0.346337
0.383853
0.569802
0.463056
0.932875
0.473662
0.515988
0.739666
1.31911
0.916938
0.836143
0.778521
0.852622
0.374098
0.627341
0.734058
1.19969
1.0991
1.16986
1.11938
0.824003
1.01726
0.324756
0.287452
0.730845
0.00402786
0.00417543
0.00375866
0.00374716
0.0042179
0.00435184
0.00397783
0.00427285
0.00430928
0.00519726
0.00378744
0.00375157
0.00369459
0.00376438
0.0037767
0.00384014
0.00369924
0.00371114
0.00390879
0.0039348
0.00381101
0.00357837
0.00354115
0.00352314
0.00389849
0.00383739
0.00373683
0.00354136
0.00348505
0.00368788
0.0037416
0.00388421
0.00390493
0.00368561
0.0037047
0.00381787
0.0037801
0.00374081
0.00378421
0.00387481
0.00386983
0.00373358
0.00381409
0.00375137
0.00375774
0.00371676
0.00378286
0.0038778
0.00399686
0.00372826
0.00385582
0.00385008
0.0038024
0.177211
0.0611066
0.0631718
0.0595276
0.0610468
0.150091
0.0592524
0.0737288
0.0463528
0.175092
0.0457392
0.0500464
0.0580065
0.0586947
0.0449661
0.155302
1.32798
0.954336
1.03179
0.935122
0.366417
0.39195
0.858602
0.913049
0.33887
0.338645
2.14512
1.40178
1.40422
0.989483
0.405556
0.0596887
0.0129461
0.0186588
0.078184
0.0764492
0.047225
0.0182606
0.0175096
0.0175458
0.0222161
0.013765
0.0441348
0.07348
0.0721255
0.0815983
0.246946
0.0898584
0.0563593
0.0549818
0.00399784
0.00405707
0.00408056
0.0039944
0.0039247
0.00412818
0.00414046
0.00379375
0.00393077
0.00408324
0.00411158
0.00439432
0.00413704
0.00396985
0.00396676
0.00400232
0.00491219
0.0046971
0.00497748
0.00472294
0.0045321
0.00503089
0.00542438
0.00511234
0.00496199
0.00511795
0.00504703
0.00488241
0.00511827
0.00487184
0.00496392
0.00538926
0.00540913
0.0044069
0.00473813
0.0045086
0.00472925
0.0046575
0.00454604
0.00341429
0.00702586
0.00428394
0.00459475
0.0039382
0.00448121
0.00429057
0.00446984
0.0041905
0.00428769
0.00348766
0.0764259
0.0505504
0.0734043
0.114218
0.0239862
0.0840671
0.0397913
0.0625592
0.0350845
0.0267442
0.0644804
0.115329
0.0733342
0.034869
0.0435371
0.0546877
0.0926191
0.0992099
0.0236715
0.0372981
0.0436687
0.0680931
0.00363159
0.0812549
0.0223284
0.0318333
0.0353619
0.100297
0.0550145
0.0401519
0.047204
0.0176421
0.0121577
0.0123247
0.0144445
0.0138213
0.0167094
0.0148109
0.0129691
0.0137169
0.0124369
0.0129026
0.0142975
0.01495
0.0136993
0.00958537
0.0122844
0.015489
0.0117052
0.0135431
0.00390165
0.0039295
0.00394888
0.00444088
0.00467718
0.00394748
0.00380086
0.00432569
0.0041989
0.00424461
0.00363843
0.00461471
0.0698863
0.0338413
0.0961119
0.0303399
0.0901893
0.0570199
0.084911
0.0842552
0.0755889
0.0219357
0.0216383
0.0206859
0.0183472
0.0185511
0.0214324
0.0213484
0.00305875
0.0157527
0.00266042
0.0105691
0.0369295
0.0217339
0.0372892
0.0298387
0.0268266
0.0124563
0.00743776
0.00283835
0.0409622
0.00568689
0.00807847
0.0109209
0.00557417
0.00419116
0.0393365
0.00764215
0.00195764
0.0552725
0.0396666
0.0122105
3.2604e-05
0.00237201
0.00101025
0.00195714
0.00304161
0.00251386
0.00157485
0.0542797
0.044736
0.0460169
0.0142086
0.0233429
0.0152398
0.0133858
0.0246451
0.00910617
0.0186335
0.0204061
0.0191803
0.00994743
0.0121591
0.0190762
0.0157882
0.00668398
0.00981388
0.0358374
0.0216893
0.0183003
0.0353166
0.0185631
0.0244931
0.00719512
0.00287234
0.00413528
0.00342887
0.0042982
0.0138155
0.00386448
0.0029978
0.00384082
0.00255503
0.00300849
0.00301611
0.199048
0.425381
0.453704
0.025922
0.0782829
0.330426
0.16651
0.0548804
0.0595433
0.536218
0.35225
0.284523
0.258617
0.278659
0.320676
0.287961
0.313907
0.280165
0.30342
0.217419
0.175146
0.302657
0.297926
0.342543
0.374532
0.364048
0.398947
0.307882
0.206396
0.145989
0.11113
0.189919
0.0335683
0.0253793
0.0843839
0.0589601
0.0677269
0.0275735
0.0504486
0.0495672
0.0462857
0.15844
0.199823
0.26148
0.0235914
0.203412
0.365813
0.149173
0.260104
0.0166375
0.0454035
0.0792634
0.266319
0.0212343
0.039619
0.297761
0.201497
0.0340914
0.250296
0.012133
0.112587
0.0617107
0.0795304
0.317197
0.105004
0.739745
1.07284
0.60795
0.570336
0.317841
0.933843
0.703613
0.656537
0.046234
0.0554006
0.0111624
0.0127629
0.00500922
0.00585594
0.0160598
0.0235244
0.10041
0.0376123
0.0587584
0.0674244
0.0186402
0.0100042
0.0705644
0.0190869
0.0600384
0.0581174
0.0438057
0.106094
0.112366
0.0347875
0.0145069
0.00485283
0.0371172
0.010821
0.00639309
0.0220277
0.0505405
0.0133071
0.0300888
0.0132223
0.00929208
0.00939269
0.0464163
0.0155339
0.0215964
0.0632756
0.0318076
0.00748115
0.00600683
0.00839499
0.0771489
0.167433
0.0202029
0.0312643
0.0913918
0.137976
0.0251638
0.0176291
0.0546186
0.0401686
0.0396281
0.0740395
0.0809471
0.132167
0.0442571
0.0410414
0.0518456
0.13371
0.0207175
0.0237202
0.0644398
0.0185365
0.0660694
0.126865
0.0060419
0.00800016
0.00922613
0.0144546
0.00502029
0.00761151
0.0170379
0.0463397
0.0794541
0.0550874
0.00845905
0.00587309
0.0059177
0.0141512
0.0030503
0.0141378
0.0128934
0.0112828
0.0114535
0.0126855
0.00995674
0.00917602
0.00978507
0.00982727
0.0118851
0.0120723
0.00864182
0.0119326
0.0124307
0.00379235
0.00376133
0.00391139
0.00385464
0.00391789
0.00385883
0.00403203
0.0038969
0.00416365
0.00428298
0.115842
0.0697595
0.117688
0.161799
0.0436928
0.0405436
0.157373
0.235559
0.0582708
0.143632
0.136422
0.138345
0.171357
0.0382333
0.163624
0.137281
0.0190633
0.35736
0.412436
0.34758
0.56926
0.484366
0.354077
0.732151
0.649331
0.653748
0.634375
0.323586
0.339377
0.474218
0.36972
0.508384
0.524047
0.407657
0.286936
0.403047
0.372848
0.00225982
0.00363942
0.00364939
0.00211161
0.0049087
0.0294761
0.0340978
0.00561268
0.0037636
0.00336286
0.0325113
0.0403849
0.00199848
0.0183755
0.0246557
0.0470487
1.10238
1.00495
1.73929
1.99267
1.05186
1.54188
1.12356
1.50885
2.45451
2.14448
1.14859
1.02634
1.51689
0.017691
0.0239258
0.0192723
0.0160079
0.0138731
0.0147484
0.0235848
0.0168264
0.0153705
0.0167635
0.0136337
0.0158709
0.043042
0.118008
0.096429
0.0558275
0.123244
0.11114
0.0511921
0.0462802
0.0445564
0.054912
0.00170624
0.000155659
0.00288808
0.00156516
0.00155361
0.0266103
0.106313
0.00422108
0.0381739
0.0857561
0.0799533
0.0610957
0.0606493
0.069999
0.0166384
0.0350195
0.0619557
0.0550791
0.0213677
0.0215064
0.0442308
0.0106191
0.0276365
0.0237834
0.0202241
0.0213102
0.0272081
0.014613
0.384958
0.467319
0.30957
0.345301
0.331785
0.325707
0.389886
0.395231
0.339593
0.353864
0.307708
0.37437
0.24115
0.300631
0.235591
0.264269
0.0699928
0.161667
0.131691
0.0741114
0.011373
0.0191733
0.0260542
0.0115405
0.0110078
0.010368
0.102112
0.0635138
0.0185471
0.0349109
0.0281569
0.0226644
1.20288
1.56229
1.13847
1.41998
1.28015
1.75598
0.449367
0.502862
0.473514
0.505095
0.486008
0.551742
1.1817
1.72214
1.22343
0.792366
1.0007
1.01748
0.603689
1.47191
0.0134752
0.00926417
0.00734576
0.00656459
0.00733283
0.00594995
0.00655644
0.00669084
0.00665195
0.0136446
0.016605
0.00875608
0.00868165
0.00580162
0.0155809
0.0459327
0.0640667
0.103505
0.146428
0.205776
0.192644
0.204687
0.0603212
0.304197
0.441341
0.393388
0.13661
0.474281
0.520498
0.0222955
0.0388964
0.0142632
0.0229071
0.0199806
0.0281001
0.0106582
0.00677273
0.0305857
0.00637454
0.0164583
0.00611238
0.00764561
0.00514582
0.00495221
0.00554601
0.0578173
0.0624045
0.0522435
0.0518474
0.193834
0.205302
0.0405577
0.115523
0.109965
0.037926
0.189659
0.170057
0.259161
0.146775
0.156207
0.209069
0.21256
0.272193
0.274495
0.011068
0.039076
0.0108337
0.0215859
0.0128111
0.107251
0.0273095
0.0550746
0.0689903
0.048436
0.0106608
0.0138463
0.0135878
0.0121176
0.0723618
0.0561132
0.0461338
0.0896527
0.063078
0.0759911
0.0326529
0.0493931
0.0860531
0.0612224
0.0552575
0.01593
0.0118722
0.0105193
0.078307
0.00436754
0.00648873
0.0253967
0.0229359
0.0125904
0.010934
0.0260319
0.0288862
0.0130314
0.0250063
0.00904206
0.00731676
0.00729796
0.00806998
0.030797
0.00852965
0.023189
0.0207908
0.0166233
0.0315437
0.024708
0.0247948
0.0609479
0.0232033
0.0651999
0.0721384
0.0561965
0.0394256
0.504615
1.06404
1.52235
0.813914
1.17694
0.611395
0.737524
1.12161
1.29038
0.448023
0.866703
1.01858
1.47004
0.592851
1.01174
0.292087
0.757754
0.428538
0.321525
0.647419
0.778717
0.583459
0.311464
0.278063
0.270203
1.10658
1.11458
1.10769
1.24315
0.265138
0.282693
0.264361
0.236627
0.252677
0.534269
0.554079
0.474965
0.0299676
0.0634916
0.0127536
0.0290796
0.0170909
0.00709351
0.000641689
0.0176575
0.0056459
0.00369193
0.00183783
0.00222235
0.00324317
0.00506452
0.00668337
0.00262754
0.25516
0.215005
0.342988
0.334689
0.937691
0.741224
0.205641
0.630237
0.723721
0.840723
0.784579
0.895993
0.190592
1.15554
1.32691
0.958981
1.11642
0.266225
0.0683384
0.911036
0.0551834
0.897494
1.15723
0.369679
0.701247
0.273187
1.03946
1.32858
0.985084
0.104701
0.323405
0.418562
1.46478
0.331294
0.689184
0.765256
1.24556
0.386108
0.57912
0.565723
1.08399
0.309386
0.477568
1.56077
0.357239
0.723297
0.382145
0.892503
1.33515
0.721856
0.413171
1.05564
1.16674
0.33657
0.193336
0.82847
0.195558
0.787722
1.31761
0.781776
0.186121
0.226445
1.21096
0.796947
0.235364
0.192048
0.28829
0.205036
0.0838665
0.138445
0.101297
0.231652
0.239263
0.0507909
0.062837
0.0688038
0.189419
0.285688
0.108367
0.144656
0.0707785
0.19567
0.207451
0.0836154
0.0791514
0.0445106
0.0369554
0.0396827
0.0459316
0.120958
0.0687257
0.0449872
0.0682333
0.0450301
0.414829
0.69877
0.286572
0.0108586
0.010458
0.0100635
0.0103709
0.0111645
0.00932325
0.0325475
0.03901
0.0609452
0.031433
0.0016129
0.0128549
0.0141182
0.00847245
0.0275305
0.0264919
0.0782569
0.0303571
0.00659062
0.00739948
0.423826
0.456312
0.465212
0.389212
0.513176
0.498496
0.765732
0.771263
0.352269
0.387314
0.454062
0.474441
0.470309
0.754019
0.389086
0.426829
0.476593
0.361418
0.371699
0.0239712
0.0109787
0.017107
0.0129847
0.310175
0.430139
0.141215
0.235595
0.035139
0.0155189
0.235586
0.0648308
0.0206505
0.165835
0.406176
0.141413
0.0853806
0.201634
0.0985331
0.193577
0.0110149
0.00805037
0.0336902
0.0167158
0.0330509
0.723186
0.944707
0.393503
0.454151
0.271546
0.152552
0.0844754
0.12587
0.103796
0.509523
0.138825
0.0304273
0.00670456
0.0908058
0.331261
0.228274
0.204614
0.207497
0.251548
0.27416
0.228554
0.219041
0.197453
0.294925
0.334465
0.57053
0.485439
0.242676
0.263728
0.37866
0.0235299
0.0222427
0.0247537
0.0299188
0.0303873
0.0269069
0.0503776
0.0418808
0.0448329
0.0276917
0.0314427
0.0300559
0.0454803
0.035146
0.035801
0.0345147
0.0417256
0.0391448
0.0394235
0.0304048
0.729495
0.999598
0.600585
1.00604
0.458858
0.522018
0.185696
0.324141
1.11208
0.653908
1.12467
0.933833
0.24487
0.234451
1.14039
0.834393
1.11897
0.731164
1.4045
0.485301
0.0219408
0.0445961
0.0551569
0.0549582
0.0372828
0.0281689
0.0250028
0.0391194
0.049023
0.041755
0.0425948
0.0380392
0.0658526
0.0316527
0.0840437
0.0765665
0.0784506
0.43932
0.994288
0.905728
1.75846
0.484915
0.559778
0.728822
0.786987
2.64705
0.74477
0.435371
1.45628
0.0119949
0.0104993
0.00903018
0.00414327
0.0114678
0.00835776
0.00771189
0.00526691
0.00495435
0.0136176
0.00884318
0.0048257
0.0569971
0.000276063
0.0196605
0.00104117
0.0309975
0.0975644
0.00111202
0.056318
0.0805462
0.164964
0.148878
0.00633941
0.0107012
0.247913
0.175727
0.263874
0.00987421
0.0217719
0.0351787
0.00791848
0.017211
0.020379
0.00759971
0.0714898
0.0206385
0.0304969
0.00987642
0.0507572
0.151686
0.0408328
0.0660219
0.0947663
0.359321
0.0163914
0.0138428
0.26364
0.465909
0.0359804
0.0309302
0.0968895
0.241467
0.0676707
0.234501
0.240717
0.200721
0.108209
0.156175
0.214753
0.153872
0.155012
0.0758562
0.0162654
0.12939
0.0658574
0.0615575
0.0228416
0.0188871
0.0285438
0.0343382
0.0592911
0.00263619
0.00488503
0.000575121
0.00371386
0.0791475
0.0790653
0.0101544
0.00128274
0.00691556
0.0440281
0.0755173
0.0735929
0.0120797
0.00307903
0.00524968
0.1339
0.076721
0.511495
0.358733
0.124667
0.485439
0.32802
0.21834
0.104221
0.00975612
0.0016559
0.0160518
0.0535824
0.00502408
0.0209726
0.0213607
0.00743703
0.0268996
0.018878
0.0204806
0.024658
0.0248929
0.0106143
0.0110048
0.0227802
0.0274597
0.0257771
0.0207289
0.0176742
0.0261302
0.0200785
0.0927593
0.0562208
0.0562433
0.118191
0.0545523
0.380499
0.952077
0.0740919
0.267264
0.318977
0.153141
0.308725
0.293831
0.0964085
0.190324
0.14631
0.183282
0.173402
0.500018
0.387877
0.228729
0.0670564
0.0834943
0.381435
0.347235
0.153829
0.14849
0.146018
0.0811726
0.100759
0.156484
0.0947006
0.082024
0.124159
0.0720402
0.0464761
0.128675
0.19534
0.125799
0.123552
0.130222
0.0743025
0.0516471
0.12065
0.142714
0.0486973
0.0367137
0.0503976
0.209073
0.0593396
0.108812
0.133596
0.264317
0.142466
0.0543349
0.049129
0.411503
0.298349
0.33793
0.444703
0.437322
0.353863
0.838663
0.661624
0.505058
0.714396
1.07722
0.656276
0.361529
0.738097
0.380689
0.676266
0.724236
1.40284
1.47364
0.797309
1.32181
1.56505
1.03537
1.47304
1.02494
0.690173
0.461164
0.325625
1.33648
0.950741
0.961061
0.158999
0.299693
1.15258
0.233191
0.934298
0.833135
0.225615
0.194592
0.158796
0.821386
0.483606
0.485596
0.480733
0.468215
0.487248
0.494483
0.455719
0.505136
0.473717
0.480843
0.491411
0.649838
0.618028
0.628969
0.560999
0.635586
0.568508
0.724077
0.569499
0.668902
0.732643
0.622346
0.634507
0.207101
0.235282
0.265434
0.731434
0.538377
0.956625
0.645795
0.565198
0.212347
0.43129
0.752054
0.535788
1.13489
1.0665
0.431196
0.461272
0.507519
1.47185
0.876284
0.921382
0.61925
0.374275
0.94332
1.04714
0.43061
0.323849
0.232206
0.914104
0.779235
0.99857
1.2829
0.573322
0.852358
0.858597
0.237805
0.658403
0.725424
0.289139
0.283652
0.989217
0.791458
0.807707
1.13638
0.813172
0.851384
0.307934
0.286652
0.658097
0.31306
0.250104
0.222837
0.121753
0.230597
0.132399
0.131059
0.126284
0.297059
0.0692385
0.0645188
0.173621
0.166197
0.0415387
0.0752007
0.124014
0.0581034
0.0542897
0.0145823
0.0137232
0.0265599
0.0238918
0.0222883
0.0355174
0.0112259
0.00778608
0.0197659
0.0178445
0.0124341
0.0500789
0.0212765
0.0290198
0.0213586
0.0387063
0.0190233
0.0269998
0.0260114
0.0576806
0.0398421
0.0306116
0.0284414
0.0218346
0.0185822
0.01826
0.016284
0.00578471
0.00355681
0.0154981
0.016166
0.00271093
0.00138399
0.0109958
0.0129838
0.000101383
0.00688502
0.00436047
0.00746346
0.00682431
0.237263
0.127334
0.252679
0.252883
0.249956
0.236051
0.40625
0.126806
0.170257
0.42558
0.182238
0.224734
0.280683
0.289514
0.844604
0.298779
0.556029
0.122466
0.0210353
0.135894
0.669611
0.538839
0.0272544
0.0894461
0.0805882
0.0120718
0.259693
0.372463
0.658191
0.103715
0.0989856
0.446154
0.646476
0.0574687
0.067854
0.0667037
0.0711242
0.103315
0.179745
0.0729235
0.883075
0.712865
0.128452
0.126363
0.273039
0.450875
0.724489
0.482082
0.564334
0.584733
0.722462
1.17425
1.56909
0.998942
1.43373
0.286833
0.598362
0.258134
0.017675
0.0146346
0.0170025
0.0140187
0.00522724
0.0138531
0.00823591
0.0086329
0.0154831
0.0175246
0.0167579
0.0145444
0.0115141
0.0146103
0.131566
0.157187
0.0832303
0.0982875
0.212518
0.0843198
0.0939669
0.230327
0.330165
0.25369
0.384625
0.170336
0.147796
0.228427
0.0591461
0.344181
0.338949
0.377572
0.435293
0.50356
0.253261
1.60097
1.39396
0.241685
0.224637
0.990423
1.23627
0.56345
0.946354
0.5935
0.894745
0.831862
1.01667
0.0294419
0.0410779
0.0249017
0.0242934
0.027352
0.0239121
0.028235
0.022244
0.0220735
0.0174712
0.917406
0.901636
0.651994
1.1092
0.232549
0.192621
0.143859
0.29064
0.523331
0.640753
0.886689
0.917952
0.755502
0.173778
0.192239
0.0674052
0.581039
0.809194
0.176425
0.184467
0.154751
0.185328
0.154589
0.375179
0.104174
0.232411
0.368023
0.699377
0.413552
0.0706188
0.132671
0.663589
0.541451
0.68156
0.402042
0.0455871
0.0711308
0.363109
0.377666
0.211429
0.00695722
0.00685136
0.00651464
0.00698979
0.00662307
0.0063296
0.00670076
0.00656706
0.00614291
0.00644977
0.00626968
0.00652857
0.00675632
0.00654497
0.0062842
0.00601393
0.0061196
0.00591145
0.00626934
0.785234
0.837671
0.656823
0.757287
0.719111
0.749222
0.8466
0.738235
0.697494
0.625132
0.841476
0.841958
0.886638
0.791438
0.709342
0.701568
0.807067
0.819222
0.0277396
0.0289375
0.0242715
0.0220793
0.0370019
0.0310514
0.0358728
0.0302522
0.0280252
0.0471946
0.0354752
0.0368829
0.0370089
0.044446
0.0597983
0.0571451
0.00401465
0.00411819
0.00410573
0.00403397
0.00406831
0.00400602
0.0039925
0.00394909
0.00397755
0.00396619
0.00397705
0.00392882
0.00398601
0.00460263
0.00456461
0.00468456
0.00467051
0.0046022
0.00447393
0.00496085
0.00471596
0.00508541
0.0047587
0.00488127
0.00486757
0.00479884
0.00494995
0.00464183
0.00427325
0.00482976
0.00405221
0.00446813
0.00470514
0.00138469
0.00407306
0.00427874
0.00446132
0.00442939
0.00454678
0.00369844
0.004303
0.00425286
0.00429412
0.00345416
0.00882733
0.00882314
0.00860693
0.00800511
0.00813958
0.00846455
0.00787492
0.00791129
0.00822688
0.00831095
0.00998019
0.00981652
0.00840156
0.00801963
0.00826522
0.0083139
0.00976336
0.00866961
0.00887717
0.00869271
0.656543
0.634709
0.592382
0.435647
0.552181
0.500398
0.65723
0.568984
0.649216
0.331767
0.356325
0.623216
0.503332
0.571733
0.656311
0.898193
0.584304
0.686813
0.808634
0.880458
0.976638
0.691297
0.814818
0.940119
0.800638
1.04926
1.18718
1.02068
0.514723
0.464601
0.524337
1.03522
1.00364
0.0116743
0.0108961
0.01093
0.00961209
0.0124172
0.0110895
0.00963241
0.00950084
0.0102591
0.0109176
0.00880005
0.00872074
0.00858434
0.00924139
0.00975523
0.0304873
0.0203909
0.0194819
0.022698
0.0438448
0.0471195
0.0429653
0.0505977
0.0480287
0.00809364
0.0085079
0.00748577
0.00750746
0.00817385
0.00736604
0.00728156
0.00771978
0.00703328
0.00679615
0.00683208
0.00668208
0.00702795
0.0078643
0.00735428
0.0068565
0.00691198
0.0071501
0.00781359
0.00818405
0.0069706
0.00715816
0.00266895
0.0043485
0.00230332
0.00288258
0.00428385
0.00795938
0.00325305
0.00251885
0.00218469
0.00269876
0.00233809
0.00281175
0.00313617
0.00175148
0.00229078
0.00296001
0.00288594
0.00607064
0.00317414
0.00862624
0.00408916
0.00400402
0.0038294
0.00422125
0.00479319
0.0041293
0.0043623
0.00460604
0.00425157
0.00401526
0.00386743
0.00372769
0.00376566
0.0042632
0.00417251
0.00457683
0.0044373
0.00437659
0.00408993
0.00428305
0.0040555
0.00456099
0.00377231
0.00405415
0.00427859
0.00371538
0.0141564
0.0260521
0.0228782
0.0179471
0.00606197
0.0169517
0.00118683
0.00344648
0.0221794
0.00520432
0.029246
0.0152787
0.0129334
0.00254753
0.00319985
0.0101615
0.00341971
0.00447954
0.00236503
0.00379467
0.00443096
0.00527407
0.00327937
0.0110164
0.00354056
0.00514641
0.00551119
0.00563758
0.00510311
0.00539435
0.00764819
0.00554596
0.00560346
0.0140322
0.00572229
0.00858063
0.021904
0.00648778
0.00815652
0.0103683
0.00934417
0.00555158
0.00378579
0.00660257
0.00374801
0.00381517
0.0043308
0.00375601
0.00370619
0.0044617
0.00402717
0.00368863
0.00363517
0.00381382
0.0045156
0.00370995
0.00351391
0.00547773
0.00600355
0.00559981
0.00507532
0.00559523
0.00597745
0.00641787
0.00578225
0.00554309
0.00557979
0.00550051
0.00601381
0.00569652
0.0430988
0.0195591
0.0387138
0.0376869
0.0312114
0.0252065
0.0363306
0.0368759
0.0339892
0.0477551
0.0391398
0.0360908
0.0431958
0.00981208
0.00898304
0.0100871
0.00820054
0.00772103
0.00943689
0.00657138
0.0119438
0.008633
0.00825862
0.00746577
0.00650457
0.00441203
0.00348771
0.00721052
0.0144354
0.00943264
0.0157057
0.0137324
0.0231416
0.00944733
0.00495504
0.0385148
0.0319973
0.0819546
0.0189744
0.0335267
0.016741
0.0105252
0.0292675
0.0142253
0.00909654
0.0179689
0.00743599
0.0161389
0.00858606
0.0255958
0.00763257
0.00505214
0.00805235
0.0228654
0.00721404
0.00595271
0.00782323
0.0229223
0.0995702
0.131792
0.0894235
0.0790609
0.0565083
0.113521
0.106998
0.103356
0.106836
0.122518
0.122565
0.00397314
0.00385923
0.00411249
0.0042863
0.00441836
0.00406181
0.00426432
0.00411071
0.0042956
0.00430457
0.00407389
0.00409247
0.00417499
0.00451929
0.00714534
0.000206099
0.0194936
0.00207888
0.00616918
0.00757383
0.00551042
0.00645222
0.00686033
0.00452795
0.00545012
0.00635617
0.00516726
0.00887201
0.00424196
0.00495659
0.00541071
0.00762657
0.00464875
0.00481128
0.0047156
0.00357781
0.00382869
0.00308585
0.0021462
0.00465059
0.00337061
0.00346556
0.0045883
0.00350064
0.00377792
0.00397374
0.00379395
0.00386839
0.00350797
0.00333609
0.00378786
0.00385201
0.00396551
0.00392718
0.00424778
0.00418671
0.00403174
0.00393391
0.00396089
0.00400446
0.00401195
0.00395499
0.00451882
0.00411979
0.00411415
0.015883
0.0146081
0.0185488
0.0129926
0.0132512
0.0171447
0.0186966
0.0151642
0.0173622
0.0161057
0.0132917
0.0174592
0.0142809
0.00164161
0.00438395
0.00405457
0.0026693
0.00415137
0.0034441
0.00335299
0.00373722
0.00364192
0.0035535
0.00354268
0.00259021
0.00639144
0.00346188
0.00381613
0.00312483
0.00416236
0.00271754
0.00553522
0.00554076
0.00394467
0.00687949
0.0102392
0.00680119
0.00718813
0.0155809
0.0125989
0.0108754
0.0182259
0.0228924
0.0169352
0.0200687
0.0285847
0.0126653
0.0123603
0.020058
0.0227228
0.0166598
0.0250285
0.169354
0.415367
0.122722
0.198059
0.175084
0.332693
0.0563146
0.059323
0.320681
0.0576412
0.179793
0.464597
0.209352
0.17253
0.185187
0.126441
0.0412855
0.144314
0.230382
0.0656324
0.286034
0.185574
0.0887682
0.0430163
0.127751
0.26626
0.28136
0.00242526
0.00816982
0.00770013
0.0102117
0.00312557
0.468086
0.0788828
0.390723
0.102778
0.785954
0.101198
0.55533
1.4871
1.35508
0.561814
1.68574
1.99884
0.422404
1.20791
0.219602
0.288848
0.269894
0.286314
0.26649
0.271143
0.0475073
0.0743327
0.279591
0.276716
0.0338408
0.0297375
0.230214
0.272071
0.074025
0.0386455
0.0900659
0.132619
0.104194
0.0421077
0.0689936
0.117321
0.109131
0.0655658
0.120045
0.062978
0.179397
0.0242209
0.0383793
0.294738
0.458774
0.323709
0.346979
0.216192
0.084753
0.103924
0.137396
0.364129
0.107504
0.256165
0.3333
0.145325
0.137997
0.167034
0.115493
0.11782
0.240069
0.423565
0.380617
0.0651997
0.248534
0.422036
0.254968
0.0386632
0.00604318
0.0157768
0.00194509
0.00296882
0.00299363
0.0275055
0.00174265
0.0245579
0.0302915
0.0363081
0.0222208
0.00361843
0.00118501
0.00314793
0.00594629
0.0124299
0.011487
0.364386
0.648274
0.567384
0.63302
0.71037
0.57922
1.11933
0.164099
0.913814
0.570068
0.268991
0.224859
0.266525
0.367579
0.587296
0.172378
0.723345
0.554867
0.196176
0.381853
0.0172837
0.179577
0.00287901
0.00301148
0.0021633
0.00221363
0.00279101
0.00277494
0.00283795
0.00268308
0.00278183
0.00307375
0.00281124
0.00273083
0.00254998
0.00257309
0.00259421
0.0025332
0.00261519
0.00279694
0.00265903
0.00255011
0.00792878
0.0252166
0.0785342
0.00422215
0.0016436
0.00298916
0.0852832
0.000890238
0.018978
0.00355633
0.00362842
0.0263137
0.00351659
0.00358746
0.025576
0.419182
0.692557
0.499201
1.15435
1.03252
1.12918
1.0855
0.612796
0.0110428
0.00707718
0.0229349
0.019059
0.0198563
0.00640267
0.0113252
0.00461269
0.0196881
0.0152306
0.0048806
0.0143237
0.0819266
0.118466
0.959936
0.361147
0.0889408
0.160024
0.883199
0.666148
0.868639
0.919147
1.29914
0.673046
1.07099
1.69051
0.515511
0.201339
0.205286
0.28331
0.00234671
0.00491753
0.00567106
0.00723798
0.00650105
0.00238224
0.00290831
0.00446644
0.0046985
0.00537036
0.00839468
0.00333462
0.00343089
0.00626785
0.00315118
0.00720089
0.00826822
0.00321819
0.00558211
0.00707363
0.0310929
0.041026
0.0159527
0.0393269
0.0068423
0.00947797
0.0117899
0.0439304
0.0204323
0.00982436
0.064429
0.0107806
0.00542164
0.0219959
0.0311606
0.00910433
0.00636534
0.0353168
0.00471436
0.00755568
0.0145449
0.0131843
0.0151031
0.0177386
0.0139136
0.0167823
0.0146731
0.0130789
0.0156653
0.0174716
0.0172455
0.0157936
0.0155471
0.0144125
0.0157436
0.0140258
0.671503
0.816836
0.929455
1.0012
1.03785
0.848607
0.707453
0.584772
0.524423
0.522918
0.596512
0.598244
0.847336
0.491103
0.517206
0.610386
0.562584
0.524893
0.0405377
0.0201246
0.0173431
0.00561807
0.0120225
0.00689961
0.00633968
0.0086069
0.0650525
0.0476948
0.0142317
0.00684808
0.00698002
0.00938378
0.0427225
0.0194485
0.00824974
0.00287295
0.0028662
0.0028514
0.00412317
0.0030183
0.00303138
0.00314296
0.00240811
0.00218771
0.011692
0.00880099
0.0155262
0.000749111
0.00270257
0.00230913
0.00253151
0.00274649
0.00638123
0.0125806
0.46955
0.460991
0.377775
0.216237
0.055903
0.23656
0.0285033
0.188925
0.221484
0.343118
0.0618012
0.052194
0.123178
0.149925
0.0747174
0.0896721
0.0455664
0.0336077
0.0252187
0.0445627
0.0340025
0.0405349
0.00942774
0.0311774
0.010524
0.00804342
0.00930906
0.00823045
0.203754
0.125687
0.0562944
0.160122
0.271146
0.0411002
0.0266872
0.141755
0.157206
0.136763
0.0286806
0.0200191
0.0735584
0.0909919
0.0525831
0.0335307
0.0597591
0.0349614
0.02824
0.0114957
0.0327015
0.0336275
0.0361572
0.0369353
0.0274963
0.0277827
0.0140824
0.0137648
0.0167124
0.0135973
0.0363778
0.0383574
0.0193982
0.0314442
0.0300835
0.0194289
0.028113
0.0101214
0.00211815
0.0418118
0.0303136
0.00760539
0.0107984
0.0225377
0.000566754
0.00107099
0.00161589
0.000771938
0.00248416
0.0016317
0.000573948
0.000525655
0.00506317
0.0187498
0.0140473
0.00644011
0.00602762
0.0128122
0.00913552
0.0118889
0.00792039
0.00861511
0.00304712
0.00496668
0.000648111
0.0093759
0.00919268
0.00498424
0.00465845
0.00497835
0.00500655
0.00458999
0.00475873
0.00506015
0.00486037
0.00486154
0.00482124
0.00495662
0.00472449
0.00457738
0.00478928
0.0120686
0.0124027
0.0167158
0.0162451
0.017138
0.017275
0.011963
0.0106751
0.0142567
0.0151523
0.0123693
0.0153345
0.0132144
0.0138152
0.0248189
0.0273556
0.0293525
0.0325333
0.0645336
0.0676585
0.0655335
0.0735178
0.0293678
0.0519363
0.0435488
0.0461284
0.0575365
0.048201
0.040702
0.378231
0.453313
0.0412256
0.0975054
0.137213
0.391648
0.478569
0.00225377
0.0569327
0.0285365
0.0627132
0.136789
0.036233
0.056956
0.0262591
0.00896253
0.0399664
0.182534
0.147681
0.0987628
0.131478
0.119823
0.0969269
0.106344
0.143108
0.104717
0.108982
0.107352
0.151252
0.142799
0.107932
0.103498
0.114501
0.128008
0.118099
0.135894
0.150691
0.150233
0.125287
0.0166901
0.02006
0.0272299
0.0270322
0.0303569
0.0474186
0.0378507
0.023048
0.0227983
0.0225901
0.0413812
0.0262606
0.0312189
0.0354043
0.0282925
0.0969486
0.15051
0.0722177
0.0581974
0.196981
0.18009
0.183475
0.131715
0.197388
0.0495124
0.136879
0.0568219
0.181397
0.219537
0.136033
0.164692
0.0823465
0.0957365
0.0490523
0.0852949
0.0730213
0.109188
0.0863918
0.1172
0.102382
0.0908564
0.0501929
0.103521
0.0300257
0.036219
0.0871649
0.0583103
0.0502569
0.0444669
0.0035671
0.00373856
0.00389944
0.00357291
0.00333132
0.00366382
0.00332532
0.00337079
0.00359141
0.00338365
0.00334997
0.00332774
0.00338045
0.00339123
0.00335291
0.0033452
0.00334661
0.00335183
0.00330177