/*--------------------------------*- C++ -*----------------------------------*\
  =========                 |
  \\      /  F ield         | OpenFOAM: The Open Source CFD Toolbox
   \\    /   O peration     | Website:  https://openfoam.org
    \\  /    A nd           | Version:  10
     \\/     M anipulation  |
\*---------------------------------------------------------------------------*/
FoamFile
{
    format      ascii;
    class       volScalarField;
    location    "5";
    object      nut;
}
// * * * * * * * * * * * * * * * * * * * * * * * * * * * * * * * * * * * * * //

dimensions      [0 2 -1 0 0 0 0];

internalField   nonuniform List<scalar> 
75457
(
0.0559927
0.0601454
0.0473691
0.0207455
0.0546717
0.0225586
0.0550934
0.0196618
0.0259037
0.0251287
0.0230608
0.039161
0.0507151
0.0197678
0.00161583
0.00134389
0.00293598
0.00273431
0.00122908
0.00172529
0.00209625
0.00134924
0.00257933
0.001653
0.00165765
0.00249813
0.00196316
0.00253236
0.00652691
0.000775565
0.000725942
0.0096805
0.00966064
0.00318174
0.00206261
0.00391235
0.00283744
0.0118356
0.00802483
0.00547968
0.00748229
0.00472276
0.00254902
0.00882794
0.0133002
0.0061327
0.00548332
0.00916606
0.0916911
0.0442719
0.068882
0.0892919
0.0853194
0.0707462
0.0488525
0.0517138
0.11772
0.101689
0.0960085
0.0143681
0.0865155
0.09608
0.05199
0.0447256
0.0078838
0.0412826
0.0134299
0.0453931
0.0568559
0.0116036
0.0565691
0.0126448
0.0467571
0.00375681
0.0561804
0.0181131
0.0178689
0.202924
0.175781
0.141745
0.174152
0.159577
0.208272
0.150953
0.133556
0.149771
0.158268
0.145152
0.191635
0.137268
0.214248
0.189453
0.147888
0.183627
0.156741
0.0993724
0.0974731
0.101187
0.0138484
0.12156
0.0927386
0.110505
0.00535802
0.000180425
0.00101392
0.00135779
0.00898127
0.00217089
0.0101517
0.0427212
0.0667819
0.00809864
0.00827792
0.0524448
0.0127866
0.0846908
0.011647
0.049671
0.0521552
0.0136598
0.00311879
0.0106524
0.0115154
0.0290706
0.0580155
0.0357701
0.00774215
0.0681658
0.0738174
0.0129663
0.0247362
0.130407
0.0418297
0.0966077
0.156021
0.056634
0.0512624
0.136109
0.124065
0.00990145
0.0305742
0.0491184
0.0691683
0.0349798
0.0414124
0.108971
0.082524
0.0636001
0.0676974
0.137436
0.0113093
0.118446
0.0556783
0.0487731
0.0671279
0.074967
0.135106
0.00836334
0.0776866
0.123231
0.00808158
0.0584731
0.121934
0.00086582
0.000870588
0.000860758
0.000879712
0.000872178
0.000870092
0.000864827
0.000855671
0.000880929
0.000849166
0.000867138
0.000869134
0.000868034
0.0785274
0.0917019
0.115484
0.0954528
0.206759
0.00738595
0.179614
0.0747879
0.00867838
0.10159
0.191674
0.088615
0.0750817
0.0173507
0.10987
0.04293
0.0879787
0.0668907
0.0606202
0.0141922
0.0269847
0.0538572
0.0465504
0.032614
0.0242202
0.076975
0.0831099
0.00802152
0.0765978
0.0733681
0.0694304
0.128434
0.115898
0.115639
0.105731
0.103737
0.0126619
0.0131458
0.110058
0.0917411
0.0143294
0.102163
0.0144669
0.0151752
0.0627674
0.106669
0.0774863
0.00974802
0.083335
0.0836228
0.0138463
0.0674443
0.105781
0.00735996
0.0463532
0.0446815
0.0633281
0.0792283
0.0907511
0.102304
0.119355
0.0878105
0.0870042
0.0890459
0.0890969
0.111727
0.00914079
0.120065
0.0716846
0.0902896
0.101824
0.116212
0.100976
0.0121929
0.101175
0.00938439
0.0626905
0.0109009
0.0858023
0.00731808
0.0620673
0.0210264
0.0304211
0.0076628
0.0273607
0.0331794
0.0726184
0.054898
0.0904246
0.0172502
0.089572
0.015611
0.0156464
0.0698129
0.0119065
0.0784568
0.135845
0.130904
0.087388
0.122384
0.0918254
0.0770878
0.0110604
0.0828979
0.111103
0.00953316
0.0988871
0.0085653
0.103013
0.00786261
0.099821
0.0660211
0.0752965
0.0904908
0.0812855
0.0859146
0.134951
0.00872531
0.0688133
0.011461
0.0688569
0.108661
0.111465
0.0100262
0.116905
0.0540752
0.0123814
0.0521046
0.0530207
0.106073
0.00149004
0.0622338
0.0567342
0.00920036
0.0902935
0.0566099
0.0512862
0.0585866
0.0687308
0.0974895
0.0859541
0.0546445
0.0522094
0.0129694
0.0454109
0.0536357
0.0646567
0.066062
0.0272836
0.105766
0.0905279
0.084603
0.119186
0.0830915
0.0524108
0.0560164
0.0964534
0.00821544
0.0901374
0.0913596
0.132441
0.136289
0.0121958
0.107416
0.125066
0.0111326
0.0160904
0.0444244
0.0148898
0.0493447
0.0219646
0.0229888
0.0165103
0.0367607
0.0339188
0.0293596
0.0457975
0.101407
0.113224
0.141718
0.12709
0.0211906
0.100464
0.128836
0.0175773
0.0132009
0.0189406
0.0125167
0.0780875
0.0805662
0.072197
0.0837737
0.0838282
0.0801
0.0927677
0.0839407
0.082546
0.0931967
0.0124542
0.0789425
0.0794229
0.110997
0.00799215
0.0565298
0.0560791
0.0812398
0.0122295
0.0126612
0.0661371
0.272758
0.0981033
0.119843
0.0681682
0.0681293
0.0908975
0.00089064
0.000912383
0.000850274
0.000849533
0.000920799
0.00094644
0.000881978
0.000932956
0.000936287
0.00112663
0.000837391
0.00084672
0.000817252
0.000839146
0.000849179
0.000841856
0.0008332
0.000840306
0.000895139
0.000901355
0.000857584
0.00081709
0.000793752
0.00080193
0.000867261
0.000857191
0.000856041
0.000799718
0.000789777
0.000826468
0.000841108
0.000911785
0.000903223
0.000850219
0.000847361
0.000884014
0.000868812
0.000853263
0.000853253
0.000908719
0.000899267
0.000875329
0.000895214
0.000868042
0.000860328
0.00085735
0.000856415
0.000891762
0.00091392
0.000859405
0.000881532
0.000889034
0.000871954
0.0493283
0.0221498
0.0227533
0.0214436
0.0220904
0.0434842
0.0211161
0.0267975
0.0175568
0.0476527
0.0176964
0.0185003
0.0214384
0.0214586
0.0176284
0.0470333
0.0423355
0.0285043
0.0546479
0.0306427
0.0289285
0.0301175
0.0485259
0.0294577
0.0277434
0.026404
0.0435496
0.032479
0.0487563
0.0289653
0.0287658
0.00582258
0.00363689
0.00532752
0.0207494
0.0195463
0.0127699
0.00504955
0.00493391
0.00501015
0.00618653
0.00380209
0.0120758
0.019089
0.0188849
0.0227207
0.0526718
0.0241116
0.0154778
0.0150825
0.000877608
0.000879998
0.000891969
0.000886821
0.000876644
0.000914597
0.000914294
0.000835171
0.000865852
0.000902344
0.000902648
0.000949928
0.000910588
0.000866313
0.000861299
0.000865725
0.00084262
0.000839425
0.000841308
0.00084475
0.000845032
0.000836298
0.000852949
0.000847144
0.000846304
0.000848163
0.000859282
0.000847641
0.000850906
0.000848917
0.000854562
0.000862976
0.000853558
0.000937254
0.000974682
0.000965647
0.00100644
0.00100793
0.00099053
0.000730633
0.00146345
0.000931213
0.00102171
0.000835284
0.000984255
0.000955263
0.000992473
0.000917356
0.000965848
0.000756132
0.0175437
0.014487
0.0177427
0.0216952
0.00919076
0.0181349
0.0140831
0.0143486
0.0131787
0.00989317
0.0168889
0.022075
0.0164614
0.00983921
0.00989713
0.0213109
0.0185284
0.019373
0.0108703
0.0171779
0.0196063
0.0276403
0.00171872
0.0319955
0.0103015
0.0146067
0.0161396
0.0377
0.0232768
0.0182823
0.0207226
0.00823815
0.0052828
0.00539451
0.00605924
0.00610914
0.0068405
0.00614623
0.00543057
0.00589038
0.00543524
0.00536729
0.00590298
0.0062132
0.00593523
0.00431504
0.0054592
0.00651868
0.00515431
0.00583298
0.000916953
0.000920451
0.000919811
0.00098428
0.00102412
0.000920538
0.000886303
0.00096192
0.000949476
0.000948633
0.000852686
0.00101556
0.0217477
0.0123836
0.0273645
0.0113747
0.0259449
0.018661
0.0248845
0.0249629
0.022733
0.0087878
0.00896839
0.00827355
0.00713267
0.00723711
0.00857888
0.00827567
0.00147017
0.00618029
0.00129982
0.00438308
0.0110485
0.00710168
0.00975819
0.00985762
0.00939726
0.00507819
0.00324131
0.001348
0.0117063
0.00253897
0.00349237
0.00434173
0.00153227
0.00115845
0.0107989
0.00207857
0.000515435
0.0149672
0.0108941
0.0033971
9.10583e-06
0.000646603
0.000273089
0.000532895
0.000824961
0.000669407
0.000419061
0.0147885
0.0123062
0.0124069
0.00396675
0.0103428
0.00681195
0.00622312
0.0101328
0.00407837
0.00794083
0.00879542
0.00887593
0.00446541
0.00570028
0.00809026
0.00687214
0.00300081
0.00439853
0.014539
0.00918928
0.00794352
0.0143123
0.00806537
0.0104002
0.00331619
0.00131249
0.00185006
0.00161556
0.00201353
0.00595562
0.00175722
0.00137388
0.0017398
0.0012117
0.00142361
0.00138369
0.0392474
0.0674723
0.0707742
0.00651761
0.019728
0.0602639
0.0350164
0.0162589
0.016156
0.0772383
0.062747
0.05068
0.0470715
0.0454857
0.0477425
0.0503619
0.0475265
0.0514904
0.0456771
0.0392014
0.0308016
0.0456528
0.035998
0.0420063
0.0527991
0.0454621
0.04896
0.0449265
0.0342567
0.0212701
0.0161779
0.0294563
0.0124762
0.00928298
0.0283616
0.0207511
0.0238689
0.0105858
0.018324
0.0178951
0.0168336
0.0461141
0.0528398
0.0612176
0.00921213
0.0541059
0.0717716
0.0432212
0.0598908
0.00503348
0.0156253
0.0192778
0.0210831
0.00715327
0.0122234
0.032142
0.0166288
0.00978466
0.0374059
0.00208209
0.0293002
0.0193735
0.0226174
0.0585858
0.018831
0.102429
0.128412
0.0765696
0.0659378
0.0508767
0.109004
0.0943051
0.079138
0.0210408
0.024595
0.00565845
0.00643511
0.00243824
0.002916
0.00765564
0.0110814
0.0391484
0.0177698
0.025656
0.0286364
0.00943895
0.0048957
0.0294224
0.0093465
0.0261175
0.0254431
0.0201922
0.0415788
0.0428101
0.0162664
0.00608858
0.00223271
0.0148027
0.0049536
0.00296878
0.0086892
0.0197439
0.00629107
0.012814
0.00550801
0.00406478
0.00409414
0.0179427
0.00727787
0.0095702
0.0232444
0.0131475
0.00346976
0.00294263
0.00406354
0.029485
0.0503524
0.00969195
0.0142555
0.0334505
0.0448384
0.0118115
0.00849465
0.0227506
0.0182856
0.0179345
0.0287325
0.0307605
0.0437387
0.0197717
0.0185649
0.0221207
0.0438527
0.00982046
0.0110513
0.0270526
0.00895411
0.0170616
0.0237138
0.00282916
0.00356197
0.00373595
0.00530638
0.00221297
0.0032419
0.00628848
0.0141888
0.0207115
0.0159524
0.00360013
0.00264512
0.00271531
0.00565632
0.00136684
0.00577708
0.00529277
0.00498842
0.00496356
0.00553388
0.004479
0.00427306
0.00430601
0.00433129
0.00507921
0.00526181
0.00400603
0.00506023
0.0051641
0.000851992
0.000793944
0.000808529
0.000851011
0.000835946
0.000814175
0.000831359
0.000845081
0.000885703
0.000889576
0.0402119
0.0281413
0.0407597
0.0498173
0.0189832
0.0178041
0.0489131
0.0599526
0.0242139
0.0448896
0.044898
0.0455682
0.0494279
0.0159593
0.0490571
0.0450968
0.00838712
0.0644284
0.0706633
0.0607896
0.0956088
0.0862658
0.0664163
0.121948
0.112709
0.117641
0.115397
0.0570234
0.0610303
0.0816379
0.0670139
0.0866
0.0970891
0.0746471
0.0541981
0.0730732
0.0698898
0.000474414
0.000753738
0.000769337
0.000442537
0.000978172
0.00572207
0.00608804
0.00114211
0.000766244
0.000701896
0.00593338
0.00730041
0.000421121
0.00378315
0.00484301
0.00808892
0.0964687
0.0981271
0.185104
0.199273
0.0851804
0.144674
0.0971485
0.122417
0.20863
0.193926
0.099339
0.0922999
0.129446
0.00715496
0.00917834
0.00778341
0.0068058
0.00603943
0.00629159
0.00914838
0.00678947
0.00648791
0.00706857
0.00609872
0.00662734
0.0111798
0.0277098
0.0241169
0.0143371
0.0293828
0.027062
0.0135896
0.0123885
0.0120411
0.0145604
0.000449509
4.13415e-05
0.000749367
0.000409014
0.000396381
0.00690841
0.0263858
0.00109531
0.00990977
0.0256023
0.0240328
0.0183371
0.0181754
0.0200494
0.00666254
0.0128731
0.0190158
0.0179617
0.00880746
0.00880591
0.015278
0.00440628
0.0103471
0.00936067
0.00841958
0.00879526
0.0104351
0.0059467
0.0695389
0.0663895
0.0578901
0.0640412
0.0665305
0.0611122
0.0829865
0.0849121
0.0700307
0.0720334
0.0612879
0.0767208
0.0472118
0.0614067
0.0462739
0.0542556
0.0155523
0.0328619
0.0283637
0.0168047
0.00258181
0.00426904
0.00588953
0.0026257
0.00248815
0.00229613
0.0222133
0.0141453
0.00405908
0.00762431
0.00584954
0.00487058
0.0206511
0.130073
0.0949691
0.117777
0.0221521
0.107603
0.08001
0.0659259
0.0793291
0.0796968
0.0808313
0.0863774
0.137638
0.156902
0.103198
0.0950156
0.0977416
0.0975055
0.088405
0.148815
0.00201843
0.00121407
0.0010001
0.00092815
0.00107286
0.000831892
0.000847797
0.000907283
0.000964735
0.00186641
0.00225036
0.00124088
0.00115889
0.000833267
0.00218475
0.00920273
0.0121644
0.0198269
0.0279974
0.035234
0.0312629
0.0300772
0.0103012
0.0426571
0.0579103
0.0542059
0.0216076
0.058488
0.0601031
0.00601141
0.00949594
0.00396969
0.00619651
0.00557347
0.00744496
0.00313261
0.00210313
0.00779289
0.0018454
0.00458508
0.00190276
0.00227701
0.00160699
0.00153201
0.0017431
0.0247479
0.026233
0.0226923
0.0225158
0.0553147
0.0572117
0.0180497
0.0400914
0.03812
0.0173982
0.0560023
0.0508615
0.0630402
0.0465319
0.0495627
0.0568842
0.0604319
0.0630879
0.0619206
0.00432811
0.0124468
0.00372899
0.00776446
0.00481253
0.0287252
0.00902645
0.0162123
0.0190748
0.0142688
0.00432594
0.00550952
0.00494265
0.00483509
0.0202373
0.0167235
0.0170467
0.0292751
0.0227917
0.0260373
0.0128528
0.0186268
0.0283775
0.022659
0.0206674
0.00192737
0.00165027
0.0014595
0.00962795
0.000512585
0.000859149
0.00343814
0.00302543
0.00166793
0.00146243
0.00341675
0.0038762
0.00158477
0.00312905
0.0011192
0.00087802
0.000907099
0.00102901
0.00415824
0.00108473
0.00746888
0.00678133
0.00548812
0.0105238
0.00815344
0.00777715
0.0206793
0.00765176
0.0205763
0.0237172
0.0186702
0.0131268
0.106361
0.15507
0.0132983
0.153322
0.0659053
0.0977766
0.0674201
0.00959901
0.0111825
0.0886622
0.078317
0.0743341
0.0126368
0.0911825
0.0920261
0.0741484
0.0926928
0.0832957
0.0727627
0.0838808
0.0856097
0.0816028
0.0712119
0.0748926
0.0745525
0.0946141
0.0146116
0.0864489
0.0165671
0.0739482
0.0752448
0.0735496
0.0690455
0.0706755
0.102996
0.0954604
0.098767
0.0140084
0.0271812
0.00629716
0.0136186
0.00843569
0.00352734
0.00032011
0.00873571
0.00279951
0.00183481
0.0008668
0.00107822
0.00157863
0.00248232
0.00332309
0.00129986
0.0558901
0.042932
0.0634291
0.0673428
0.0764148
0.0734626
0.0593173
0.0900167
0.0792462
0.112618
0.0943359
0.122832
0.0517839
0.100802
0.0166184
0.100113
0.0139979
0.0601706
0.0258329
0.0960593
0.0202057
0.109038
0.0726109
0.0781308
0.0886978
0.0670754
0.108272
0.0139361
0.10118
0.0380368
0.0738351
0.0813036
0.0152862
0.0740496
0.106719
0.0972027
0.101684
0.0927982
0.0719032
0.152244
0.00994427
0.0527852
0.0671991
0.0142578
0.0664671
0.0852558
0.0491029
0.117612
0.015146
0.131386
0.0641762
0.0966007
0.0129753
0.0780028
0.0508909
0.0977663
0.0529372
0.0919015
0.0146631
0.0932556
0.056111
0.0606891
0.0826144
0.0870256
0.063842
0.0564879
0.0681966
0.0584076
0.0334573
0.0470153
0.0379489
0.0638356
0.0637712
0.0225796
0.0265843
0.028768
0.0566232
0.068542
0.0398096
0.0485107
0.0299585
0.0593011
0.0604333
0.0192876
0.0215198
0.0108948
0.00896206
0.0101741
0.0116561
0.0258966
0.02461
0.0124043
0.016015
0.0113946
0.069848
0.0831921
0.0541675
0.00091276
0.000903079
0.000915895
0.000963193
0.00090929
0.00087764
0.00319344
0.00361825
0.00548338
0.00284285
0.000130097
0.000995027
0.00138296
0.000811748
0.00254509
0.00236036
0.00717039
0.00245032
0.000567229
0.000684737
0.0212204
0.0338732
0.0359097
0.0281996
0.0151204
0.0190088
0.0184025
0.00995823
0.0332008
0.0424402
0.0333658
0.013404
0.0155961
0.011476
0.0202128
0.0194643
0.0271463
0.0244419
0.0225404
0.00468577
0.00245179
0.00380361
0.00321298
0.0308105
0.0298385
0.0150925
0.0207919
0.00766914
0.00355209
0.0210787
0.00869152
0.00437597
0.0284807
0.0350145
0.0188233
0.0150842
0.0190939
0.0170513
0.0193702
0.00523254
0.00380827
0.0144935
0.00779576
0.0144195
0.0836692
0.0837773
0.0801133
0.0890351
0.0921657
0.0492812
0.0358595
0.0411927
0.0369932
0.0804546
0.0510573
0.013511
0.00319176
0.0333676
0.0471919
0.0346098
0.041718
0.0394526
0.0283045
0.0559945
0.0324864
0.0443724
0.0419671
0.0566429
0.058784
0.0640266
0.0684081
0.0476562
0.0487842
0.0618541
0.000961185
0.000974148
0.00102933
0.00114871
0.000998223
0.000979174
0.00166071
0.000964438
0.00109373
0.000757701
0.00097332
0.000948213
0.0010174
0.00104139
0.00110095
0.00110484
0.00107261
0.00101003
0.00099862
0.00103561
0.0909992
0.104305
0.0768617
0.0997582
0.0734843
0.078388
0.0437872
0.0617348
0.0936658
0.0806839
0.0108053
0.100948
0.052354
0.052724
0.0815237
0.0759103
0.0107733
0.0835947
0.0133673
0.0742138
0.000716032
0.00118847
0.00132993
0.000983392
0.000885733
0.000944346
0.00101564
0.000990199
0.00104063
0.00099418
0.000939694
0.00106832
0.00105234
0.000771215
0.00106379
0.000945393
0.00141925
0.142698
0.0852715
0.13352
0.0125947
0.0833342
0.100409
0.0884844
0.10532
0.0187493
0.102268
0.222472
0.0710843
0.000989196
0.00090555
0.000593894
0.000284822
0.000873291
0.000720383
0.00070507
0.000492964
0.000353436
0.000899891
0.000702201
0.000373199
0.00443781
1.94563e-05
0.00169824
8.07536e-05
0.0024184
0.00812191
7.20389e-05
0.00501995
0.00710911
0.0284162
0.0261389
0.00115487
0.00190178
0.0392228
0.0299356
0.0418398
0.00172127
0.0039484
0.0062426
0.00141658
0.0031453
0.0037649
0.00141662
0.0122595
0.00363347
0.00544814
0.00179648
0.0105261
0.0288536
0.00848707
0.0132536
0.0186278
0.0569675
0.00343284
0.00279463
0.0434182
0.0670351
0.0070104
0.00637822
0.0190954
0.0408978
0.0131247
0.0236179
0.0292488
0.0311743
0.017819
0.0143362
0.0327649
0.0276286
0.024443
0.0121746
0.0025607
0.0229234
0.0105551
0.00989676
0.00365001
0.00598174
0.00883713
0.0107254
0.0176272
0.000860432
0.00161329
0.000182725
0.00118581
0.0223874
0.0213591
0.00324561
0.000409022
0.00216414
0.0132037
0.0214699
0.021477
0.00169647
0.000429269
0.000718263
0.0188156
0.0108334
0.0630643
0.0514789
0.0176444
0.0572857
0.0450928
0.0331405
0.0162408
0.00136991
0.000210871
0.00208798
0.00742146
0.000692157
0.000960244
0.000971111
0.000443048
0.00148478
0.000961372
0.000933524
0.000978657
0.000975872
0.000569453
0.000556494
0.00089113
0.00091201
0.00103643
0.000778253
0.000743841
0.00103899
0.000832125
0.0125506
0.00976257
0.0104797
0.0160587
0.010785
0.0311629
0.0486811
0.0142519
0.024644
0.0292769
0.0208093
0.0311642
0.0259333
0.0179336
0.0248841
0.0152475
0.00415908
0.0203523
0.0603869
0.0570925
0.040571
0.0144545
0.018683
0.0554851
0.0528985
0.0291428
0.0287254
0.0296107
0.0168428
0.0210697
0.031236
0.0203507
0.018248
0.0255271
0.0156741
0.0100158
0.0264481
0.037075
0.0268216
0.0263512
0.0329304
0.0229877
0.0163075
0.0317143
0.0395525
0.0163084
0.0131898
0.0173567
0.0506099
0.0181583
0.0300574
0.0377041
0.0631412
0.0389803
0.0176857
0.016026
0.0796582
0.0707837
0.073701
0.081513
0.096197
0.0869139
0.0993726
0.120458
0.0851198
0.121462
0.0136206
0.0837589
0.0762694
0.085301
0.0929051
0.0983047
0.0840887
0.105392
0.0189546
0.0822362
0.0950122
0.0204249
0.0993821
0.0200238
0.0934703
0.0899912
0.0796889
0.0727252
0.0177851
0.0996025
0.0892356
0.054359
0.0701739
0.104934
0.0607995
0.0942504
0.0916463
0.06068
0.0571721
0.0495967
0.10386
0.0899704
0.0860955
0.0892618
0.0532383
0.0540425
0.0573638
0.0539022
0.0830464
0.0630729
0.0655478
0.0534924
0.0628082
0.0713645
0.0855289
0.0206036
0.0694989
0.0649336
0.0666146
0.0155081
0.0502768
0.0754232
0.0584484
0.115155
0.0469529
0.0522607
0.0566335
0.0872916
0.0777864
0.13144
0.0934119
0.0871919
0.0507022
0.0698913
0.0993205
0.0702062
0.0106545
0.00990896
0.0677595
0.0717379
0.0736926
0.0137338
0.105145
0.0770048
0.0844843
0.116988
0.106476
0.0111299
0.0721063
0.0695456
0.0601443
0.0964162
0.094154
0.0713084
0.0136782
0.0876873
0.0956466
0.0879293
0.0599023
0.10705
0.125045
0.065368
0.0643926
0.103655
0.090904
0.0804617
0.0114057
0.117428
0.0830542
0.0690422
0.0687326
0.0847788
0.0723921
0.0688809
0.0646423
0.0431954
0.0654114
0.0507858
0.0462929
0.0454119
0.0745727
0.0278397
0.0264098
0.0549417
0.0535407
0.0180565
0.0300862
0.0436453
0.0242943
0.0229315
0.00693762
0.00654963
0.0123412
0.0112137
0.0105528
0.0159868
0.00542684
0.00384794
0.00931609
0.00845973
0.00612167
0.0224837
0.0100151
0.0133821
0.0101777
0.0177355
0.0091261
0.0126857
0.0121177
0.0237995
0.017418
0.0143855
0.0113064
0.00935457
0.0080042
0.00794684
0.00767694
0.00286903
0.00178784
0.00725521
0.00730345
0.00136983
0.000705373
0.0052804
0.00613787
5.18732e-05
0.0034377
0.00217281
0.00369436
0.00339355
0.0393629
0.0207115
0.0317227
0.0321426
0.0323012
0.0331007
0.0643521
0.0233839
0.0243022
0.069884
0.030384
0.034936
0.0482739
0.0518962
0.105119
0.0503028
0.0878873
0.031081
0.00609164
0.0343823
0.0878728
0.0854365
0.00788432
0.0238648
0.0215713
0.00365996
0.0563053
0.0744935
0.092919
0.0358406
0.0348621
0.0877834
0.101609
0.0240831
0.027099
0.0266861
0.0276464
0.0365914
0.04639
0.0260701
0.0930011
0.0974487
0.0394312
0.0404897
0.0574881
0.0836629
0.0909042
0.0830771
0.0934866
0.0845892
0.093556
0.0791532
0.0145487
0.0948585
0.0133358
0.0677862
0.0820271
0.0641391
0.0086018
0.00719774
0.00829701
0.00691241
0.00261059
0.00672889
0.00406622
0.00427679
0.00718551
0.00792202
0.00793857
0.0070189
0.00564765
0.00698134
0.0428176
0.0521989
0.0309339
0.0368057
0.0550655
0.0338609
0.0353071
0.0628798
0.0775589
0.0690464
0.0849527
0.0499791
0.0491231
0.0613648
0.0249251
0.0709681
0.0261032
0.013371
0.0143852
0.066296
0.0122792
0.179881
0.184059
0.0247923
0.0370815
0.0931653
0.154763
0.0815416
0.123699
0.0720235
0.133298
0.131743
0.125266
0.001444
0.00169464
0.000972156
0.0011915
0.00128542
0.00111235
0.00119087
0.00113323
0.000940381
0.000894295
0.0924089
0.0118074
0.0863978
0.0145295
0.0545044
0.0496748
0.0411243
0.0608994
0.0737807
0.0737528
0.0857001
0.0924741
0.0870049
0.0474605
0.0500914
0.0244853
0.0737988
0.0858539
0.0463238
0.0495843
0.0428871
0.0460699
0.0441696
0.0672592
0.0277222
0.0490892
0.0534129
0.0142359
0.060815
0.0201691
0.0361498
0.0125923
0.0489953
0.0123133
0.0613425
0.0144899
0.0215123
0.0691645
0.0575313
0.040472
0.000870461
0.000870617
0.000873438
0.00087358
0.000872324
0.000869082
0.000873673
0.000871135
0.000866639
0.00086579
0.000876208
0.00087098
0.0008688
0.000869321
0.000878234
0.000886988
0.000871902
0.000877202
0.000867709
0.103117
0.104757
0.0787476
0.0949054
0.0624672
0.0582825
0.0887102
0.103561
0.0587461
0.102217
0.0720026
0.0983515
0.100553
0.0609137
0.103164
0.0896133
0.0954788
0.0400983
0.000947968
0.000964788
0.0009716
0.00093478
0.000953599
0.000971035
0.000977139
0.000977686
0.000966045
0.0010287
0.000994186
0.000981959
0.000995005
0.0010098
0.00102788
0.00102215
0.000857744
0.000843472
0.000841699
0.000865135
0.000879759
0.000858687
0.000851693
0.0008571
0.000826968
0.000825665
0.000873488
0.000832949
0.000873394
0.000844305
0.000879272
0.000853073
0.00085369
0.000853085
0.000876582
0.000860301
0.000851566
0.000888527
0.000868717
0.00086601
0.000845072
0.000896976
0.000899638
0.000864356
0.000876073
0.000975632
0.000852904
0.000925746
0.000913213
0.000273715
0.00086052
0.000898923
0.000873714
0.000900971
0.000907753
0.000733963
0.000872371
0.000858107
0.000843248
0.000655629
0.000886646
0.000890298
0.000884985
0.000879593
0.000879637
0.000880665
0.000880746
0.00090073
0.000891747
0.000887094
0.00089002
0.000891118
0.0008836
0.000873162
0.000886896
0.000884453
0.000899704
0.000888897
0.000895684
0.000893879
0.0802949
0.079897
0.07755
0.0588953
0.0697356
0.0642218
0.0772559
0.0719504
0.073661
0.0494025
0.0500215
0.0724209
0.0671557
0.0706208
0.0764833
0.0947196
0.0672335
0.0798929
0.0832023
0.0892488
0.0947015
0.0763377
0.0857502
0.088322
0.0874248
0.0919323
0.09806
0.0894419
0.0520855
0.0515604
0.0501421
0.0828306
0.0906183
0.000908798
0.000909217
0.000896533
0.000947016
0.000913216
0.000909637
0.00086298
0.000886439
0.000887647
0.000878837
0.000882669
0.000896203
0.000897266
0.000893304
0.000877277
0.011469
0.00783053
0.00750961
0.00880648
0.0156381
0.0167047
0.0155647
0.0180244
0.0168399
0.000882369
0.000889064
0.00088255
0.000881537
0.000893361
0.000882004
0.0008811
0.000887677
0.000886335
0.000873918
0.000869565
0.000854014
0.000868111
0.000886216
0.000881433
0.000868521
0.000844282
0.000853797
0.000897314
0.000886102
0.000884951
0.000831918
0.000712579
0.00114054
0.000615642
0.000768597
0.00113474
0.00203596
0.000855082
0.000691568
0.000576245
0.000730049
0.000617158
0.000767901
0.00082572
0.00048338
0.000630711
0.000806184
0.000776279
0.0016574
0.000859024
0.00235603
0.000821588
0.000840121
0.000786356
0.000903124
0.000956001
0.000866561
0.000900615
0.000931517
0.00087213
0.000839803
0.000804124
0.00080615
0.000802221
0.000899801
0.000888249
0.000928527
0.000917738
0.000883642
0.000882671
0.000888296
0.000865228
0.000926379
0.000810829
0.000898792
0.000931087
0.000804374
0.00544396
0.00939439
0.00827998
0.00682979
0.00240876
0.00653085
0.000506778
0.00139384
0.00803738
0.00214054
0.0101004
0.00598763
0.0051434
0.00112542
0.00138621
0.00398086
0.00147188
0.00194552
0.00101235
0.00160826
0.00185053
0.00214784
0.00135344
0.00431734
0.00150475
0.00213981
0.00171874
0.00173057
0.00152599
0.00161976
0.0024328
0.00174327
0.00175404
0.00377099
0.00142789
0.00238058
0.00630827
0.0020095
0.00250068
0.00313833
0.00277577
0.00168049
0.00110192
0.00201025
0.000887833
0.00088787
0.000968663
0.00088316
0.000891685
0.00101759
0.000912345
0.000893377
0.000877091
0.000897813
0.00104269
0.000894473
0.000860616
0.000847949
0.000859795
0.000857298
0.000816614
0.000855711
0.000861749
0.000861945
0.000850655
0.000821341
0.000867935
0.000835432
0.000859635
0.000858402
0.0148463
0.00781746
0.0136451
0.0133667
0.0114745
0.00948581
0.012843
0.0130608
0.0123254
0.0161656
0.0136092
0.0128026
0.0148532
0.00415271
0.00426109
0.00478479
0.00382002
0.00356981
0.00402593
0.00290066
0.0050935
0.00405945
0.00388239
0.00337227
0.00295608
0.00208286
0.00163447
0.00331542
0.00676812
0.00451148
0.00748754
0.00627706
0.0105765
0.00448308
0.00234825
0.0168699
0.0141055
0.032328
0.00878727
0.0149569
0.0074151
0.00487037
0.0130373
0.00646874
0.00387653
0.00763531
0.0032837
0.00714729
0.00373566
0.0107868
0.00328908
0.00225149
0.00361198
0.00982531
0.00300535
0.00258803
0.00336894
0.00957866
0.0179322
0.0233071
0.0157525
0.015626
0.0106216
0.0230112
0.0209924
0.0214212
0.0218002
0.025277
0.0264972
0.000837484
0.000828808
0.00083659
0.000838651
0.000833512
0.000836726
0.000836079
0.000832447
0.000833245
0.000832183
0.000836123
0.000838417
0.000833579
0.000811809
0.00124568
1.89229e-05
0.00239748
0.000204265
0.00115302
0.00128901
0.00101072
0.00116562
0.00118864
0.000983589
0.00108521
0.00121274
0.00105656
0.00148611
0.000940419
0.00101385
0.00108636
0.00138882
0.000967194
0.000938937
0.000972081
0.00073347
0.000775935
0.000657143
0.000462583
0.000993685
0.000692668
0.000677623
0.000913246
0.000670022
0.000781849
0.000783761
0.000842027
0.000846533
0.00081238
0.000766168
0.000839016
0.000828365
0.000855388
0.000840253
0.000854647
0.000841734
0.000865129
0.000858801
0.000839402
0.000829437
0.000841946
0.000846376
0.000935623
0.000854443
0.000863226
0.000927907
0.000924433
0.000939336
0.000914079
0.000913579
0.000933279
0.000942415
0.00092579
0.000935447
0.000930399
0.000917698
0.000935241
0.000913906
0.000396916
0.0010378
0.00102621
0.000663045
0.00101614
0.000888643
0.000875879
0.000931374
0.000903957
0.000903531
0.000913805
0.000614244
0.00156788
0.000899257
0.00093611
0.000774675
0.000919061
0.000666449
0.00118189
0.00122521
0.000978197
0.00307664
0.00454553
0.00304299
0.00312066
0.00688597
0.00563197
0.00465485
0.00785402
0.0100644
0.0077039
0.00842784
0.0118463
0.00579966
0.00551273
0.00904947
0.0100777
0.00723504
0.0107601
0.0409115
0.0781149
0.0308637
0.0449879
0.0395138
0.067136
0.0161801
0.0175923
0.0649237
0.0165279
0.0450319
0.0844295
0.0503564
0.0439836
0.0466783
0.0340989
0.0121705
0.0358238
0.0505675
0.0193288
0.0619406
0.046639
0.0247785
0.0127778
0.0326396
0.0567805
0.0596969
0.00125381
0.00411288
0.00387569
0.00537768
0.0015609
0.0634289
0.0121666
0.0514981
0.0171121
0.0860211
0.0180007
0.0629547
0.124709
0.0989023
0.0566757
0.0830149
0.160186
0.0445441
0.0987001
0.0321511
0.0527108
0.0498722
0.0441113
0.0435662
0.0603017
0.0110286
0.0158614
0.0556525
0.0614438
0.00865539
0.00825324
0.0417034
0.0442467
0.0193781
0.0102008
0.0215775
0.0308184
0.0239832
0.00846602
0.0107948
0.0158858
0.00940367
0.00667665
0.00914292
0.00455195
0.0109669
0.00440624
0.00879127
0.0156044
0.0143547
0.0145447
0.00957635
0.0119244
0.00926159
0.0129038
0.0066881
0.0196336
0.0155738
0.0574156
0.0697401
0.0364954
0.0357325
0.0416531
0.0309574
0.0312278
0.0561939
0.0801757
0.0761704
0.018876
0.0597205
0.0847753
0.0594918
0.00782912
0.00150765
0.00335102
0.000426966
0.00080993
0.000810745
0.00602348
0.000502209
0.0054451
0.00620913
0.00694338
0.00465697
0.00102732
0.000346454
0.000887451
0.0016513
0.00308212
0.00288679
0.0466401
0.0660818
0.0612786
0.0715172
0.0741104
0.0681752
0.0927173
0.020515
0.0880433
0.0580219
0.0423004
0.0354733
0.0412143
0.049739
0.0621576
0.0273014
0.0750417
0.0592663
0.0328389
0.0509163
0.00373766
0.030143
0.000790847
0.000830371
0.00059807
0.000619161
0.000781873
0.000792224
0.000790461
0.000738021
0.000772927
0.000854111
0.000792892
0.000781216
0.000730655
0.000713274
0.000723453
0.0007171
0.000735392
0.000792144
0.000771459
0.00072926
0.00138595
0.00426012
0.0111804
0.000910786
0.000292674
0.000629586
0.0119137
0.000174845
0.00345046
0.000798554
0.000803236
0.00482785
0.000753163
0.000794725
0.00524771
0.0611993
0.0856089
0.0699614
0.119347
0.103981
0.121929
0.117264
0.0743996
0.00363881
0.00225287
0.00737704
0.00607928
0.00641205
0.00207103
0.00362255
0.00144147
0.00645336
0.00499022
0.00155
0.00466917
0.0230207
0.0323679
0.0981646
0.067153
0.026181
0.0397356
0.0952511
0.0963675
0.091256
0.0918791
0.0144222
0.0901271
0.093483
0.0188006
0.0724291
0.0452435
0.0462775
0.0581982
0.000787923
0.00162456
0.00189632
0.0024083
0.00211728
0.000787893
0.000975391
0.00142055
0.00153238
0.00175636
0.00270101
0.00105283
0.00112836
0.0020738
0.00103302
0.00228142
0.0025801
0.00104228
0.00275246
0.0034691
0.014515
0.0186249
0.0077874
0.0182025
0.0033915
0.00464649
0.00573174
0.0196667
0.00983665
0.0048157
0.0271098
0.00525812
0.00265652
0.0105578
0.0146303
0.00447076
0.00315307
0.0162826
0.00231313
0.00372711
0.00091929
0.000912744
0.000925334
0.000937049
0.000917325
0.000928807
0.000922209
0.000910971
0.000919322
0.000927046
0.000933117
0.000926716
0.000926958
0.000921257
0.000925928
0.000919432
0.0883221
0.107504
0.113841
0.113105
0.138965
0.126323
0.109813
0.100998
0.0959029
0.0921993
0.10098
0.102439
0.129349
0.0894338
0.0904345
0.0988711
0.091457
0.0849723
0.0179147
0.00869816
0.00755124
0.00260875
0.00557255
0.00323076
0.00287469
0.0038631
0.0267058
0.0207352
0.00657283
0.00318587
0.00331293
0.00452957
0.0187883
0.00907952
0.00211338
0.000741638
0.000726705
0.000732938
0.00110352
0.000775065
0.00078199
0.00080769
0.000615008
0.000560723
0.00302389
0.00224563
0.00397479
0.0001932
0.000708559
0.00060416
0.000667781
0.000726158
0.00170927
0.0033585
0.0530539
0.0533321
0.0494809
0.0325105
0.0110478
0.0327976
0.00487502
0.0297892
0.032823
0.0432035