/*--------------------------------*- C++ -*----------------------------------*\
  =========                 |
  \\      /  F ield         | OpenFOAM: The Open Source CFD Toolbox
   \\    /   O peration     | Website:  https://openfoam.org
    \\  /    A nd           | Version:  10
     \\/     M anipulation  |
\*---------------------------------------------------------------------------*/
FoamFile
{
    format      ascii;
    class       volScalarField;
    location    "5";
    object      omega;
}
// * * * * * * * * * * * * * * * * * * * * * * * * * * * * * * * * * * * * * //

dimensions      [0 0 -1 0 0 0 0];

internalField   nonuniform List<scalar> 
75457
(
29.8325
29.2628
24.47
20.928
25.831
33.9159
25.8565
33.9238
17.0649
16.8124
15.8421
20.7766
20.1288
17.6185
2.11088
2.10042
2.01241
2.16552
2.0993
2.00659
2.08406
2.05983
2.1342
2.12673
2.08594
2.21909
2.20055
2.18242
2.24186
2.17689
2.11382
2.35578
2.4214
2.09549
2.08381
2.10508
2.07946
2.52081
2.44257
2.10802
2.14165
2.09514
2.05914
2.47925
2.71358
2.21217
2.13889
2.43638
5.88557
3.30231
4.6758
5.36587
13.2287
4.48037
3.59087
3.77843
7.53665
8.46372
7.6366
14.6873
11.5887
6.33224
8.73741
7.19885
7.07571
8.00267
6.68377
8.29416
8.50417
13.9438
8.20542
14.5393
7.76726
7.74845
8.06929
7.15262
7.60228
14.0823
11.4404
9.78822
16.9215
12.6801
11.8563
9.17014
8.95158
8.92078
9.81562
9.97121
13.7393
15.1362
9.87989
9.36503
12.5565
8.78472
5.58834
3.20852
3.50108
3.74996
23.6019
6.71582
8.30704
10.862
22.134
20.0079
39.6173
41.0983
20.8253
18.6961
20.4339
7.23763
5.64247
15.725
15.6783
13.4056
5.31678
9.84744
22.1019
9.21303
8.60309
24.1624
6.0335
6.75205
6.69583
6.41527
7.66188
7.57989
15.3634
6.45453
11.4621
7.19652
6.85509
6.91025
6.54865
6.06952
3.32581
15.3018
7.03387
5.45406
5.71892
24.633
4.40671
5.3873
6.63773
4.33701
4.55337
5.96692
7.1006
8.22608
17.9287
5.0669
31.9079
9.27967
5.1106
4.1471
9.08273
13.1082
4.76149
27.527
5.31235
7.03828
27.1403
5.37482
8.10875
6.03896
6.25931
6.52997
6.22306
6.39679
5.78638
5.7851
6.06839
6.29218
6.01767
6.14091
5.95479
5.81544
8.64532
7.89062
7.56089
11.607
4.64359
22.3351
3.86101
12.0243
27.9242
5.15354
3.73259
9.54765
17.7713
39.2395
7.52216
7.61603
8.34975
13.2344
6.24272
26.0041
4.00684
4.60555
4.06845
4.40579
3.91906
7.50263
8.70139
12.9189
6.28239
7.16819
12.9739
11.606
12.4613
12.5809
11.0017
11.2739
23.3644
26.0814
9.40843
10.8777
24.9747
10.8868
27.3652
25.4936
26.1718
8.55524
12.1208
23.2116
10.5647
11.3554
27.6748
13.2031
7.84083
20.2037
5.05877
4.96408
19.7372
8.35035
9.67149
7.04268
9.14166
4.26903
4.55622
4.83033
5.09807
8.81978
21.2887
6.97654
16.3608
10.0953
6.71639
7.1244
10.7799
24.4484
10.2577
21.4999
9.91645
19.8869
7.62216
14.0825
6.23861
4.61485
5.2321
3.17104
3.45477
3.97536
4.10132
6.04976
9.98495
18.1314
12.4203
30.4422
17.2819
19.9817
26.7922
17.0139
5.84177
6.31528
10.069
6.07898
10.3807
11.3752
17.3126
10.1233
9.42868
16.1368
9.67093
15.2469
7.41687
14.6512
6.75228
4.17167
4.17443
5.44963
5.03896
5.44863
4.85461
20.7591
15.4482
23.7703
16.0866
8.24848
8.39669
22.2404
7.94828
10.2208
25.7171
4.57848
4.48519
3.18577
21.7116
4.41977
3.21243
21.7116
1.9657
3.16068
6.25155
2.82962
14.3013
16.6147
16.3455
15.0357
14.6979
26.4987
13.1829
17.3686
12.9845
13.0187
22.387
4.38184
4.43718
4.97663
7.83755
12.5926
10.6779
9.38475
10.9529
25.1914
5.51109
5.67582
8.5397
7.78292
30.4803
9.67963
8.20402
29.0723
3.15333
6.5193
18.5105
5.79519
11.2003
3.56421
18.5105
5.35728
5.22347
8.30799
5.95487
4.45216
9.39731
7.80878
9.8837
28.0842
8.08846
5.3543
15.42
22.0654
15.9462
21.4018
3.88315
3.71004
4.79711
4.58201
6.79726
5.78097
10.056
5.64282
6.25092
7.93661
21.4695
11.6153
10.5277
7.0139
17.268
6.61772
11.1867
9.0357
21.7873
20.8613
17.6885
4.10393
8.39934
8.48831
4.76404
4.21921
8.04032
4.52244
4.5764
4.42052
4.41085
4.5807
4.59811
4.51012
4.5799
4.60252
4.6131
4.52291
4.4307
4.52074
4.48597
4.44747
4.56152
4.4398
4.41642
4.36668
4.36543
4.44389
4.37941
4.46127
4.39332
4.49517
4.47671
4.36525
4.42826
4.41271
4.46222
4.44842
4.26001
4.32333
4.33489
4.37204
4.31879
4.35088
4.38413
4.43504
4.26404
4.30332
4.26535
4.26054
4.32165
4.3678
4.33518
4.41708
4.34848
4.37331
4.33818
4.37399
4.33063
4.36078
3.59249
2.75879
2.77638
2.77601
2.76349
3.45161
2.80603
2.75133
2.64016
3.67433
2.58467
2.70517
2.70573
2.73525
2.55078
3.30195
28.5218
16.9399
18.8808
16.9399
12.6663
13.014
14.3215
16.9546
12.2145
12.8255
33.4418
32.1758
26.8727
19.3274
13.4289
10.2512
3.55966
3.50234
3.76801
3.91118
3.69816
3.61627
3.54882
3.50205
3.59105
3.62037
3.65482
3.84935
3.81921
3.59136
4.6884
3.72678
3.6413
3.64541
4.55538
4.61032
4.57478
4.50417
4.47695
4.51366
4.52859
4.54249
4.53977
4.52514
4.55502
4.62595
4.54326
4.58246
4.60556
4.62308
5.82967
5.59562
5.91636
5.59093
5.36323
6.01566
6.35956
6.03479
5.86313
6.03416
5.87355
5.76
6.01508
5.73889
5.80873
6.24497
6.33715
4.70193
4.86121
4.66899
4.69897
4.62087
4.58951
4.67306
4.8009
4.60039
4.4971
4.7148
4.55289
4.4915
4.50374
4.56802
4.43931
4.6125
4.35632
3.48937
4.13715
5.26469
2.60982
4.63564
2.82546
4.35994
2.6622
2.7033
3.8179
5.2244
4.45492
3.54388
4.39897
2.56619
4.99877
5.12105
2.17763
2.17128
2.22728
2.46355
2.11297
2.53957
2.16749
2.17936
2.191
2.66039
2.36349
2.19622
2.2779
2.14152
2.30137
2.28467
2.38388
2.26241
2.44272
2.40976
2.38816
2.32869
2.28819
2.40393
2.42209
2.40616
2.30813
2.22139
2.25022
2.37609
2.27095
2.32182
4.25502
4.2691
4.29315
4.5118
4.56704
4.28823
4.28844
4.49693
4.42234
4.47445
4.26702
4.544
3.2135
2.73274
3.51229
2.66732
3.47619
3.05557
3.4122
3.37522
3.32507
2.49616
2.41273
2.50024
2.57228
2.56332
2.49828
2.57965
2.08054
2.54887
2.04676
2.41133
3.34248
3.06039
3.82132
3.02697
2.85473
2.4529
2.29468
2.1056
3.49916
2.23984
2.31318
2.51535
3.63784
3.61791
3.64265
3.67663
3.79805
3.6929
3.6411
3.59438
3.58056
3.66841
3.69934
3.67266
3.68698
3.75536
3.75805
3.67041
3.63523
3.70898
3.58193
2.25691
2.23722
2.15099
2.43221
2.2328
2.34654
2.32008
2.16093
2.22766
2.13308
2.35792
2.29742
2.22739
2.23117
2.46492
2.36028
2.30381
2.46756
2.30158
2.35506
2.16969
2.18847
2.23522
2.1224
2.13465
2.31974
2.19921
2.18199
2.20762
2.10864
2.11329
2.17975
5.07162
6.30453
6.41058
3.97723
3.96812
5.48297
4.75522
3.3754
3.68552
6.94239
5.61382
5.61411
5.49415
6.1263
6.2393
5.71782
6.60488
5.44111
6.64272
5.54621
5.68627
6.62953
8.2762
8.15454
7.09353
8.00772
8.14843
6.85302
6.02499
6.86358
6.86924
6.44748
2.69059
2.73396
2.97529
2.84129
2.83745
2.60476
2.75314
2.76987
2.7496
3.43582
3.78168
4.27132
2.56091
3.75952
5.0969
3.45139
4.34297
1.89668
2.90577
4.11163
5.82288
2.96848
3.24125
9.26392
6.85963
3.48417
5.91901
3.90836
3.84254
3.18532
3.51634
5.41424
5.57611
7.22205
8.35471
7.93983
8.64962
6.24728
8.56704
7.46104
8.2961
2.19735
2.25251
1.97269
1.98333
2.05444
2.00821
2.09777
2.12288
2.56487
2.11664
2.29024
2.3545
1.97482
2.04347
2.39832
2.04214
2.29878
2.28421
2.16943
2.55164
2.62475
2.13861
2.38264
2.17352
2.50746
2.18448
2.15344
2.53507
2.5598
2.11524
2.34812
2.40055
2.286
2.29418
2.58692
2.1344
2.25663
2.72219
2.41928
2.1561
2.04131
2.06593
2.61655
3.32522
2.0845
2.19314
2.73215
3.07718
2.13045
2.07532
2.40075
2.19673
2.2096
2.57686
2.63153
3.02174
2.23841
2.2107
2.34376
3.04907
2.10962
2.14637
2.38201
2.07017
3.87241
5.34981
2.13558
2.24599
2.46955
2.72401
2.26858
2.34785
2.70938
3.26595
3.83622
3.45324
2.34965
2.22035
2.17938
2.50183
2.23165
2.44722
2.43603
2.26179
2.30751
2.29233
2.22298
2.14741
2.27242
2.2689
2.33995
2.29432
2.1572
2.35811
2.40713
4.45115
4.73752
4.83767
4.52949
4.68677
4.73956
4.84993
4.61127
4.70095
4.81463
2.88079
2.4789
2.88736
3.24785
2.30165
2.2772
3.21741
3.92909
2.4065
3.19968
3.03848
3.03599
3.4668
2.39567
3.33538
3.04414
2.27293
5.54663
5.83664
5.71776
5.95406
5.61481
5.33117
6.00377
5.76113
5.55715
5.49731
5.67463
5.56079
5.8088
5.51707
5.87049
5.39759
5.46112
5.29421
5.51566
5.33479
4.7634
4.8285
4.74355
4.77159
5.01824
5.1513
5.60079
4.9143
4.91174
4.79111
5.47939
5.53187
4.74561
4.85719
5.09098
5.81643
11.4274
10.2413
9.39626
9.99968
12.3486
10.6576
11.5654
12.3255
11.7649
11.0582
11.5624
11.1196
11.7183
2.47255
2.60676
2.47607
2.3521
2.29709
2.34415
2.57804
2.4783
2.36909
2.37155
2.2355
2.39476
3.84998
4.25872
3.9984
3.89392
4.19441
4.10688
3.76701
3.73575
3.70035
3.77131
3.79579
3.76521
3.85402
3.82666
3.91948
3.85187
4.02916
3.85379
3.85215
3.34955
3.32684
3.3318
3.3369
3.49132
2.49731
2.72036
3.25812
3.06647
2.42609
2.44227
2.89507
2.41
2.67092
2.54078
2.40203
2.42292
2.60738
2.45733
5.53586
6.24791
5.34754
5.39187
4.98696
5.32965
4.69818
4.65459
4.8492
4.91249
5.0207
4.87964
5.10783
4.89574
5.09123
4.87081
4.50049
4.9196
4.64293
4.41016
4.40505
4.49124
4.42382
4.39522
4.4241
4.51544
4.59689
4.4901
4.56929
4.57889
4.81352
4.65333
13.7165
12.0109
11.9878
12.0565
14.1434
11.7875
5.61638
5.95783
5.96898
6.3377
6.01262
6.38758
8.58561
10.9759
11.0098
8.33932
10.2382
10.4351
6.51984
9.89087
6.67608
7.63067
7.345
7.07278
6.83481
7.1523
7.7335
7.37459
6.89511
7.3106
7.37886
7.05637
7.49132
6.9625
7.13167
4.9912
5.26676
5.22043
5.23004
5.84027
6.16206
6.80539
5.85577
7.1312
7.62112
7.25728
6.3223
8.10903
8.66009
3.70886
4.0961
3.59303
3.69678
3.58495
3.77438
3.40234
3.2203
3.92482
3.45429
3.58953
3.21238
3.35775
3.20214
3.23249
3.1817
2.33625
2.37886
2.30225
2.30272
3.5042
3.58846
2.247
2.8815
2.88471
2.17988
3.38663
3.34353
4.11104
3.15429
3.15171
3.67535
3.51734
4.31451
4.43301
2.55724
3.13945
2.90526
2.78009
2.66202
3.7337
3.02549
3.39708
3.61683
3.39455
2.46438
2.51316
2.7491
2.50617
3.57566
3.35535
2.70631
3.06243
2.76758
2.91855
2.54052
2.65173
3.03244
2.70191
2.67366
8.26514
7.19407
7.20748
8.1333
8.52061
7.55251
7.38675
7.58102
7.54856
7.47659
7.61891
7.45218
8.22289
7.99167
8.07901
8.33325
8.04538
7.84247
7.40626
7.86342
3.10475
3.06588
3.02896
2.99735
3.03037
3.18816
2.94729
3.03242
3.16869
3.0416
3.00995
3.00343
4.74436
6.86171
23.2871
5.30851
17.8581
6.25297
10.9392
19.9879
21.4386
5.05315
11.0666
13.7027
22.8822
6.50181
10.994
3.93922
8.17489
5.14478
4.41882
7.71832
9.09612
7.14999
4.37376
3.71282
3.62433
11.6958
13.5944
12.8133
14.358
3.58546
3.75698
3.59432
3.42711
3.57518
5.18728
5.80428
4.80894
2.13926
2.33587
2.02529
2.13529
2.02602
2.01101
2.00459
2.0213
2.01674
2.01216
2.12025
2.06113
2.05442
2.04024
2.01119
2.0214
4.56539
3.71864
5.40743
4.96993
12.2711
10.0898
3.46679
7.00134
9.13256
7.46526
8.31686
7.29444
3.68052
11.4635
13.4638
9.57897
12.3499
4.42451
2.6454
9.4841
2.73108
8.23098
15.9374
4.73153
7.90602
4.07284
9.60046
18.0402
9.73599
2.75263
4.38009
5.14813
18.943
4.47395
6.45791
7.87279
12.2493
4.16073
8.05416
3.7159
21.2174
5.86124
7.10676
25.4591
5.37467
8.48384
7.78253
7.58856
15.9091
5.49415
6.43806
10.9279
14.8718
4.31485
3.79903
8.47398
3.69414
8.57138
15.804
8.38315
3.31702
3.73123
14.6579
9.15762
3.68667
3.39981
4.22734
3.51043
2.50668
2.94468
2.6693
3.62888
3.7519
2.24942
2.36368
2.39168
3.34524
4.16808
2.72213
2.98194
2.36255
3.2996
3.43272
4.33519
3.67807
4.08547
4.12354
3.90036
3.94055
4.67081
2.79259
3.62673
4.26059
3.9519
5.93902
8.39948
5.29048
11.8964
11.5804
10.9876
10.7672
12.2782
10.6231
10.192
10.7814
11.1145
11.0568
12.3977
12.9192
10.2086
10.4373
10.8171
11.2237
10.9139
12.3891
11.619
10.8063
7.65154
9.58243
6.63186
6.55078
10.2682
10.5977
17.7377
15.7806
6.39447
6.6942
7.61239
9.8803
11.0841
13.0636
7.77838
9.77012
6.43454
6.3951
7.21835
5.11575
4.47784
4.49758
4.04134
10.0672
14.4156
9.35666
11.3311
4.58187
4.36895
11.1765
7.45908
4.71907
5.82272
11.6002
7.51263
5.66027
10.5601
5.77863
9.99353
2.10507
2.11392
2.3245
2.14422
2.2921
8.6434
11.2764
4.91183
5.10081
2.94628
3.09554
2.35573
3.05563
2.8058
6.33305
2.71901
2.25205
2.10058
2.72138
5.47824
4.91755
4.90468
5.25941
4.49105
4.89619
5.03021
4.93642
4.70495
5.20675
5.68972
8.23001
7.09622
5.09222
5.40602
6.12182
24.4801
22.833
24.0483
26.0455
30.4414
27.4792
30.335
43.4251
40.9908
36.547
32.3046
31.6974
44.7023
33.7492
32.5182
31.2396
38.9009
38.7563
39.478
29.3592
8.0165
9.58339
7.81384
10.0848
6.24429
6.65941
4.24087
5.25054
11.8729
8.10456
16.9137
9.2506
4.67719
4.44676
13.9885
10.9918
16.8708
8.74653
18.9009
6.53923
30.6422
37.5238
41.4737
55.8864
42.0926
29.829
24.6177
39.5066
47.1091
41.9995
45.3284
35.6066
62.5773
41.0426
79.0044
80.9891
55.2761
3.07867
11.6603
6.78349
30.978
5.81892
5.57499
8.23673
7.47232
38.0092
7.28251
1.95697
20.4867
12.1259
11.5944
15.205
14.5468
13.1317
11.6018
10.9378
10.6842
14.0177
15.1325
12.5935
12.9307
12.8435
14.1888
11.577
12.8932
12.8174
12.0125
15.4364
11.2188
11.33
5.80528
5.69564
5.48929
5.62691
6.32063
5.87017
6.30678
5.73658
5.51411
5.63527
5.58987
5.47197
5.4129
5.36469
5.83139
5.6801
5.59768
5.49766
4.82204
5.25709
4.81117
4.98144
5.08737
6.30747
4.77486
4.95336
6.0721
6.95022
5.13243
4.84934
5.07398
5.90417
5.15597
6.015
6.4382
6.43866
6.07269
5.70188
6.55438
5.5693
6.34177
6.2307
6.35195
5.60335
6.2394
6.21997
6.25794
3.15747
3.22998
3.20157
3.3636
3.06379
3.028
3.14747
3.13193
3.53535
3.70171
3.12866
3.13612
3.19552
3.33452
3.51736
3.4266
7.12051
7.17274
7.30886
7.1164
7.08191
8.11069
6.96854
7.06552
8.474
7.27433
6.58831
6.41724
7.1217
7.85268
7.68771
7.21993
7.25858
21.8409
21.9961
16.786
18.1169
19.6365
21.939
25.1957
25.5084
18.6394
19.7753
25.5633
30.109
24.871
26.6352
23.7608
25.1497
24.1292
7.39085
5.75881
5.36687
7.35995
5.05814
12.21
19.5574
5.19872
10.845
10.8952
7.35927
9.9064
11.3303
5.37585
1.62365
9.59567
22.5995
5.3581
8.28023
6.79384
5.63774
4.63914
4.46901
6.87455
6.56417
5.27845
5.16929
4.93125
4.81942
4.78217
5.00974
4.65343
4.49496
4.86379
4.59614
4.6403
4.86519
5.26878
4.69022
4.68868
3.95444
3.23228
3.16707
3.80426
3.60821
2.98603
2.7835
2.90364
4.13106
3.26791
3.62015
3.54327
4.18613
3.65483
3.07226
3.06558
5.16586
4.21494
4.58514
5.45561
4.54611
4.07142
8.43958
5.49259
5.93349
5.88165
13.4031
7.83531
4.74016
8.65285
4.09761
6.87929
8.61277
13.3108
15.6797
9.69535
13.912
16.1589
10.418
14.9273
10.9654
7.66934
5.78706
4.47748
14.2182
9.54535
10.7699
2.92497
4.27072
10.9838
3.83541
9.91294
9.09076
3.71811
3.40362
3.20174
7.90862
5.37517
5.39204
5.38566
6.01256
5.57123
5.61799
5.82528
5.39574
5.51556
6.01286
5.74427
6.62201
7.78217
6.6021
8.41121
5.9724
6.17072
7.92143
8.47337
8.31868
8.12254
7.36308
5.51004
4.41083
4.50207
4.68688
8.3792
6.92122
7.27806
6.91341
6.48223
4.18812
6.17086
7.57199
7.63163
18.1422
17.5871
6.36362
6.42996
6.88698
20.6604
8.33405
11.9653
7.32976
3.19925
8.8595
14.5143
5.97188
4.65664
3.86082
9.48082
8.27618
14.0035
16.0668
6.53826
8.91154
9.76463
3.96987
6.15042
5.8013
4.42325
4.40504
9.54334
8.70653
10.0384
15.6933
6.92483
10.2509
4.46008
4.17054
7.76252
4.3245
3.63097
3.44724
2.81867
3.52533
2.607
2.83108
2.78087
3.98348
2.48705
2.44298
3.16009
3.10413
2.30048
2.49951
2.84141
2.39165
2.36748
2.10192
2.09527
2.15213
2.13058
2.11208
2.22168
2.06858
2.02344
2.1217
2.10934
2.03116
2.22734
2.12444
2.16856
2.09857
2.18242
2.08449
2.12837
2.14657
2.4236
2.28741
2.12795
2.51552
2.33411
2.32155
2.29776
2.12116
2.01626
1.98944
2.13613
2.21347
1.97902
1.96207
2.08238
2.11537
1.95444
2.0028
2.00684
2.02023
2.01097
6.02759
6.14799
7.96524
7.86756
7.73829
7.1313
6.31292
5.4228
7.00583
6.08981
5.99785
6.43275
5.81438
5.57871
8.03476
5.9396
6.32662
3.94023
3.45315
3.95243
7.62023
6.30689
3.45679
3.74803
3.7359
3.29835
4.61222
4.99993
7.0835
2.89379
2.83935
5.08244
6.36239
2.38626
2.50393
2.49957
2.57264
2.82346
3.87464
2.7972
9.49531
7.31528
3.25763
3.12087
4.74948
5.38918
7.96981
5.80283
6.03653
6.91262
7.72223
14.8352
20.5038
10.5309
19.5992
4.23143
7.29469
4.02459
2.0548
2.03322
2.04923
2.02805
2.00232
2.05875
2.02545
2.01855
2.15476
2.21214
2.11095
2.07217
2.03875
2.09277
3.07271
3.01131
2.69059
2.67044
3.85936
2.49018
2.66142
3.66298
4.25696
3.67419
4.52752
3.40814
3.0087
3.72244
2.37296
4.52528
2.98516
19.3013
19.3013
3.85986
19.3013
8.90017
7.57347
9.74838
4.00322
8.43514
7.98815
5.84891
5.35576
8.24036
6.29993
6.3143
8.11609
20.3892
24.2398
25.615
20.3889
21.2786
21.4969
23.7096
19.629
23.4729
19.5363
9.92767
10.5697
7.54642
11.7232
4.2666
3.87764
3.49815
4.77246
7.09306
8.68784
10.3464
9.92658
8.68343
3.66153
3.83776
2.75289
7.87329
9.42525
3.80852
3.72027
3.60833
4.02276
3.49989
5.57811
3.75777
4.73446
6.89016
12.2309
6.80017
3.50134
3.67005
14.3713
11.0511
14.4576
6.55406
3.14614
3.30653
5.24994
6.56452
5.22407
7.99258
7.86954
7.45862
8.00132
7.59244
7.28308
7.66964
7.53851
7.0882
7.44957
7.15547
7.49565
7.77662
7.52883
7.1555
6.78017
7.01868
6.73899
7.22517
7.61501
7.57301
7.15478
7.4084
7.40302
7.31255
6.83842
6.47819
6.29717
6.11574
7.35496
7.2985
7.98115
7.58057
6.15339
6.08507
6.46554
7.39299
29.2622
29.9936
24.981
23.6198
38.8024
31.9776
36.7121
30.9427
29.0103
45.8776
35.6826
37.5606
37.1947
44.0146
58.1763
55.9067
4.68048
4.88242
4.8779
4.66282
4.62435
4.66529
4.68771
4.60751
4.8098
4.80363
4.55307
4.71676
4.56382
5.45139
5.19135
5.4914
5.47097
5.39478
5.10383
5.76641
5.53798
5.72342
5.47785
5.63651
5.75994
5.35002
5.50216
5.37028
4.87773
4.95039
4.75107
4.82652
5.15229
5.05886
4.73325
4.75985
5.10615
4.91624
5.00883
5.03901
4.93253
4.95609
5.09236
5.26847
9.95587
9.91032
9.72551
9.10092
9.25334
9.61154
8.94119
8.78319
9.22557
9.36874
11.2134
11.016
9.50833
9.18459
9.31926
9.40005
10.8518
9.75322
9.91105
9.7247
8.17665
7.94409
7.63871
7.39697
7.91821
7.79171
8.50719
7.90801
8.81356
6.71559
7.12343
8.60547
7.49499
8.09581
8.58111
9.48266
8.69067
8.59666
9.7189
9.86521
10.3128
9.05577
9.50222
10.6442
9.15802
11.4134
12.1067
11.4116
9.88227
9.0108
10.457
12.498
11.0754
12.8459
11.984
12.1914
10.1499
13.5973
12.1911
11.1618
10.718
11.5577
12.4228
9.96982
9.73077
9.56721
10.3452
11.1199
2.65824
2.60402
2.59426
2.57742
2.80371
2.82074
2.76042
2.80717
2.85207
9.17263
9.5695
8.48198
8.51633
9.14955
8.35149
8.26417
8.6966
7.93524
7.77664
7.85689
7.82431
8.09568
8.87402
8.34355
7.89446
8.18682
8.37448
8.70776
9.23602
7.87682
8.60441
3.74548
3.81268
3.74133
3.75044
3.77517
3.9094
3.80438
3.64223
3.79125
3.69669
3.78848
3.6616
3.7981
3.6234
3.63206
3.67163
3.71766
3.66276
3.69506
3.66134
4.97715
4.766
4.8698
4.67405
5.01379
4.76516
4.84369
4.94467
4.87493
4.78119
4.80949
4.62406
4.69404
4.73794
4.69746
4.92913
4.83504
4.95289
4.63358
4.82165
4.6872
4.92346
4.65241
4.51067
4.59526
4.61897
2.60038
2.77315
2.76308
2.62776
2.51663
2.59563
2.34191
2.47265
2.75953
2.43131
2.89553
2.55172
2.51456
2.26361
2.30835
2.55259
2.32337
2.30249
2.33618
2.35949
2.39443
2.45553
2.42298
2.55166
2.35292
2.40507
3.20653
3.25765
3.34412
3.33034
3.14378
3.18136
3.1946
3.72109
4.00753
3.60443
3.47228
3.22856
3.26172
3.30374
3.36634
3.30355
3.43563
3.28445
4.22153
4.29699
4.47091
4.25292
4.15639
4.3846
4.41409
4.12887
4.14457
4.2479
4.33074
4.14764
4.08301
6.45997
6.98253
6.53194
6.21507
6.53869
6.93641
7.4458
6.79741
6.74883
6.42881
6.58403
6.99578
6.63619
2.903
2.50198
2.83719
2.81946
2.72006
2.65728
2.82882
2.82339
2.75766
2.95412
2.87598
2.81902
2.90819
2.36281
2.10815
2.10816
2.14673
2.16287
2.34403
2.26548
2.34491
2.12664
2.1272
2.21387
2.2004
2.11825
2.13385
2.17485
2.13285
2.09081
2.09758
2.18771
2.18802
2.10733
2.1101
2.28305
2.26842
2.5351
2.15931
2.24156
2.25769
2.16107
2.2449
2.19908
2.34657
2.35339
2.26451
2.25804
2.29841
2.37289
2.32058
2.24391
2.22935
2.32719
2.4004
2.30009
2.32216
2.39306
5.55259
5.6546
5.67678
5.05959
5.32015
4.9333
5.09698
4.82496
4.90072
4.847
4.62559
4.74414
4.65636
4.91577
5.11095
5.30089
4.85441
5.10038
4.93811
5.15527
5.17262
4.87235
4.88118
5.00852
5.56694
5.7361
5.66352
8.13087
5.64701
5.35047
5.4761
5.45199
5.53546
5.77156
4.60349
5.02219
5.24115
4.89067
5.96997
4.51072
4.88888
4.98058
5.49142
4.80643
5.12418
4.85104
4.87793
4.93429
4.69586
4.6396
4.68014
4.86612
5.11428
5.02417
5.22466
4.83202
5.07009
4.50574
4.56969
4.31814
4.35425
4.51465
4.65013
4.63592
4.67381
4.97022
4.97392
4.66027
4.5807
4.71871
4.82792
4.7651
4.67285
4.82974
4.82161
4.76602
17.117
15.8023
19.7467
14.2139
14.5047
18.3703
19.8391
16.3797
18.5603
17.3105
14.4837
18.6682
15.6262
4.13591
4.22428
3.95102
4.02582
4.08541
3.87568
3.82814
4.01259
4.02886
3.9329
3.87684
4.2169
4.07649
3.84971
4.07658
4.03373
4.52893
4.07764
4.68336
4.52228
4.0326
2.23604
2.25259
2.23503
2.3034
2.2627
2.23703
2.33637
2.32059
2.27458
2.19826
2.38124
2.41296
2.1838
2.24213
2.21648
2.25475
2.30266
2.32604
4.13952
5.31739
3.97626
4.40249
4.43096
4.95551
3.4805
3.3721
4.93936
3.48751
3.99258
5.50278
4.15741
3.92261
3.9673
3.70807
3.39227
4.02843
4.55592
3.39557
4.61787
3.97894
3.58246
3.3665
3.914
4.68929
4.71315
1.93432
1.9864
1.98678
1.89891
2.00241
7.3797
6.48354
7.58713
6.00613
9.13676
5.62186
8.82111
11.9246
13.7012
9.91279
15.8729
12.4783
9.48282
12.2381
6.83033
5.47986
5.4117
6.49071
6.1169
4.49644
4.30765
4.68641
5.02388
4.50357
3.9098
3.60312
5.52027
6.14896
3.82004
3.78849
4.17407
4.30323
4.34445
4.97373
6.39137
7.38523
6.64605
9.82016
13.1299
2.01047
6.60351
3.2948
4.36562
18.8881
31.8052
22.2561
22.3462
9.77321
4.68569
8.05372
20.5433
18.5463
6.90287
4.4616
4.77917
3.98202
3.86195
4.01011
3.7307
3.77293
4.27215
5.28296
4.99692
3.4541
4.16162
4.97829
4.28576
4.93838
4.00835
4.70806
4.55562
3.66553
3.69245
4.56638
3.46997
4.51008
4.87854
5.22917
4.77151
3.52222
3.4204
3.54716
3.60098
4.03292
3.97915
7.81271
9.81018
9.2591
8.85131
9.58529
8.49605
12.0726
7.99894
10.3791
9.82505
6.35908
6.33881
6.46682
7.39017
9.4485
6.31389
9.63924
9.36226
5.97391
7.49962
4.62421
5.95751
3.64042
3.62667
3.61713
3.57522
3.56965
3.50272
3.59025
3.6355
3.59908
3.59878
3.54555
3.49561
3.48999
3.60743
3.58588
3.53256
3.55618
3.53085
3.44676
3.49684
5.72083
5.91922
7.02429
4.63572
5.61581
4.74782
7.15842
5.09159
5.50013
4.45346
4.51725
5.45039
4.6691
4.51409
4.87374
6.84945
8.08978
7.13538
9.67217
9.92987
9.26093
9.25688
8.23654
3.03474
3.1414
3.10896
3.13507
3.09671
3.09153
3.1263
3.19999
3.05082
3.05209
3.14877
3.06773
3.55882
3.66
9.77884
5.37798
3.39714
4.02723
9.27232
6.91257
9.51871
10.0039
15.1196
7.46774
11.4566
17.2473
7.11745
4.45011
4.43597
4.86802
2.97835
3.02699
2.99056
3.00543
3.07047
3.02355
2.98169
3.14416
3.06614
3.05767
3.10798
3.1673
3.04059
3.0224
3.05047
3.15631
3.20462
3.08763
2.02805
2.03904
2.14212
2.20276
2.04852
2.16052
2.01749
2.03981
2.05695
2.23374
2.07716
2.04007
2.37659
2.05027
2.04088
2.08337
2.12987
2.03642
2.01877
2.16899
2.03808
2.02722
15.8219
14.4447
16.3218
18.9303
15.1675
18.0686
15.9108
14.3571
17.04
18.8466
18.4817
17.0426
16.7722
15.6443
17.003
15.2548
7.60288
7.59819
8.16454
8.85189
7.46846
6.71777
6.44236
5.78992
5.46827
5.67161
5.90725
5.84
6.55077
5.49124
5.71913
6.17355
6.15135
6.17723
2.26281
2.31366
2.29672
2.15355
2.15745
2.1356
2.20535
2.22798
2.4359
2.30018
2.16523
2.14952
2.1069
2.07167
2.27388
2.14202
3.90357
3.87379
3.94411
3.89037
3.73637
3.89426
3.87649
3.8913
3.91557
3.9016
3.86654
3.91916
3.90616
3.8774
3.81418
3.82205
3.79092
3.78223
3.7333
3.7459
8.85044
8.64379
7.63476
6.6513
5.06011
7.21272
5.84682
6.34205
6.74781
7.9419
5.11913
4.87045
5.90575
6.13125
5.37094
5.69676
3.51139
3.61042
3.24556
3.30604
3.0128
3.26495
2.73877
3.12659
2.72909
2.55063
2.68724
2.54837
3.40912
2.87591
2.39572
3.09447
3.82469
2.1959
2.14499
3.26972
3.06284
2.8245
2.11294
2.05843
2.58437
2.95096
2.30202
2.2168
2.53427
2.77933
2.78622
2.7528
2.9581
3.02218
2.97974
3.05383
2.77181
2.84489
2.64786
2.71697
2.72418
2.67314
2.89082
2.90606
2.67221
2.80014
2.86368
3.5728
3.76078
3.30077
3.10708
4.16417
3.81181
3.38402
3.38432
3.78273
3.11252
3.15594
3.06015
3.07826
3.23553
3.25098
3.09898
3.2176
3.12782
3.55302
3.25211
3.20034
3.22547
3.29086
3.30016
3.25805
3.19218
3.31399
3.29422
3.23346
3.30906
3.2251
3.24005
5.92516
5.62515
5.68902
5.82661
5.56501
5.74654
5.84703
5.76659
5.68125
5.70099
5.67874
5.52137
5.50491
5.50881
13.3015
13.6461
17.8937
17.4821
18.3739
18.4897
13.2109
11.8362
15.4258
16.3628
13.5921
16.586
14.43
15.0457
2.06988
2.0787
2.08079
2.08876
2.26516
2.40284
2.21114
2.30929
2.07632
2.18196
2.14751
2.15018
2.19938
2.14449
2.09532
4.84708
5.58799
3.89624
2.39644
4.19978
5.54468
5.94627
3.60922
3.99824
3.63495
3.67895
4.02145
3.70411
3.77131
3.62441
3.48069
3.73675
4.29982
4.09492
3.65665
3.77361
3.95548
3.6705
3.77789
4.15557
3.72499
3.74171
3.66904
3.65709
3.58007
3.67449
3.59904
3.47561
3.4794
3.58722
3.55569
3.56135
3.59511
3.41656
2.22441
2.2297
2.26482
2.2599
2.29729
2.45081
2.33239
2.24377
2.24755
2.32262
2.37157
2.2588
2.46134
2.46855
2.42623
2.70751
3.22222
2.43514
2.28341
3.44054
3.25797
3.24732
2.99058
3.48987
2.23087
2.90997
2.32339
3.29897
3.54862
3.05952
3.39867
3.43928
3.64497
2.96094
3.51693
3.39441
3.80216
3.54739
3.79448
3.78082
3.65606
2.99146
3.65453
2.68901
2.78183
3.48083
3.187
3.06046
2.96707
4.08357
4.11977
4.17867
4.1138
3.97401
4.09244
3.99822
4.03103
4.04224
4.02595
3.96128
3.97453
3.98213
3.93953
4.03002
4.03661
3.97099
3.93573
3.94599
3.92576
6.86919
6.5871
5.30904
5.69826
7.3018
6.23807
5.52686
6.53435
4.92899
5.04802
5.01424
6.72324
7.84059
7.42831
7.49772
7.5517
7.66557
7.4547
8.01881
7.87195
7.32938
7.36616
7.04915
7.10383
7.03715
7.95618
7.65249
2.16705
2.21064
2.18094
2.17629
2.63396
2.59794
2.54957
2.41813
2.50936
2.26845
2.37713
2.12419
2.14721
2.31809
2.31844
2.24212
2.45798
2.46406
2.7388
2.59598
2.4926
3.16904
3.13536
3.65027
3.43552
2.90634
3.2386
3.02766
3.32509
6.95715
6.09319
6.24735
5.92082
6.42303
7.79121
5.99149
6.08191
5.905
6.17633
6.57569
7.92161
6.13042
14.018
14.7207
14.4237
12.2883
13.1689
12.2618
11.4414
8.8406
9.49975
14.8214
14.2123
15.3705
15.482
9.49702
9.04498
12.8958
11.1137
9.49121
10.6148
13.0862
4.75617
4.73634
4.62851
4.71223
4.53313
4.46743
4.94445
4.58744
4.65185
4.57888
4.93544
4.65262
4.66364
4.91126
2.66034
2.13148
2.19755
2.21762
3.53301
5.15438
2.84838
2.68002
3.28988
3.81653
2.23233
2.3992
3.16606
2.74772
2.13104
3.01996
2.47327
2.27676
4.38736
4.42667
3.40746
3.4925
4.56149
4.43257
4.3347
3.51624
3.69453
3.79204
3.52663
3.79341
4.62138
4.43743
4.57257
4.47629
5.93926
4.99065
4.5168
4.39255
28.2815
6.23253
13.2223
6.42594
9.13731
2.29339
2.26535
2.52292
2.62765
2.23435
2.30999
2.24868
2.21937
2.65134
2.43725
2.34542
2.46385
2.22032
2.33369
12.0432
12.223
12.7989
18.2535
15.7129
18.0596
5.98173
7.53414
11.647
15.4289
5.97554
4.75969
4.86705
4.94883
4.88034
4.61944
4.63411
4.75366
4.73361
4.8629
5.00746
4.87197
7.09433
7.70513
8.51939
8.15474
6.51061
5.93916
6.46787
7.73629
6.93918
6.02462
6.50404
5.68636
7.42827
7.98781
7.43517
5.59702
5.71585
5.4981
5.43747
5.62326
5.50341
5.22075
5.32379
5.27446
5.27876
5.52576
5.7875
5.39136
5.49583
5.43313
5.38326
5.69104
5.83086
5.40231
5.62297
5.51091
7.46599
7.07346
7.0409
6.68424
6.49349
6.19297
7.6316
8.03586
7.26707
6.61804
5.93515
6.9451
5.61678
7.15292
5.69978
7.01812
6.39533
8.26337
8.20619
7.92695
7.80587
8.50621
8.90504
8.37087
9.437
9.81152
8.78723
8.24112
9.13442
8.5558
7.49085
8.16125
9.08589
7.98637
8.27778
7.70505
8.35202
5.82106
5.95938
5.76616
5.85164
5.59054
5.78515
5.94357
5.68949
5.7386
5.9001
5.88207
5.91131
6.12231
6.13328
2.63105
2.96815
2.7749
2.92163
2.88702
2.76395
3.39118
2.73948
2.83808
2.95238
3.71954
2.93554
2.78954
3.84808
3.23936
3.79386
4.28973
2.85805
3.16292
3.52238
5.51939
3.73714
4.65871
3.26495
4.79341
2.04158
2.04907
2.07146
2.03467
2.05411
2.04415
2.03814
2.06817
2.0646
2.065
2.04181
2.03315
2.04852
2.02402
2.05074
3.94797
3.99106
3.43563
3.18452
9.88429
11.0074
3.14847
11.5118
3.57276
3.81923
3.54846
6.46131
5.61756
10.417
12.011
8.13609
9.46577
8.37446
5.71486
5.83298
5.82455
5.69025
5.96298
6.37814
6.0027
5.90218
5.84064
5.66097
5.65997
6.45222
5.8714
6.3171
5.95688
6.36962
5.65284
5.64009
6.50057
5.97296
6.35352
4.58965
4.50042
4.51479
4.49391
4.51974
4.51794
4.58942
4.611
4.54005
4.55266
4.60889
4.70149
4.81
4.72671
4.6863
3.61836
3.68549
3.641
3.62618
3.67563
3.74816
3.70527
3.6003
3.94997
3.76425
6.73812
6.88735
7.15908
6.96004
6.54305
7.0725
7.52678
7.31931
7.31424
6.85121
6.74473
6.99307
6.14819
6.36861
6.84703
6.26673
6.11447
5.97449
6.09569
5.52226
7.02432
7.75815
6.77096
7.17193
6.81702
6.98213
5.86963
6.20781
5.99119
7.39148
6.76858
7.3333
2.60622
2.63226
2.68093
2.6603
2.25421
2.51948
2.25202
2.22708
2.14798
2.78404
2.9105
2.75049
2.27372
2.4864
2.99133
44.3247
15.0109
20.9653
10.039
17.887
35.7628
31.7586
26.3135
12.9725
11.5567
10.039
23.6693
15.8531
14.8689
27.325
4.93101
4.78806
4.91932
4.87015
4.7132
4.83424
5.35611
4.94631
5.70186
5.08433
5.46614
5.01573
4.8796
5.11461
5.00228
4.81462
4.789
4.86865
5.03625
4.66965
4.62931
4.96748
4.8701
4.96398
4.83043
4.80734
4.84536
4.68742
4.74499
17.299
13.5944
21.17
33.1291
24.0677
19.7377
17.0591
33.1291
20.0031
3.00117
2.81853
3.07664
3.06666
2.74317
2.77217
3.13949
3.93105
3.95343
4.8211
4.71162
3.44663
3.59462
4.41365
3.17932
4.02812
4.09708
3.24737
59.7747
66.9536
81.1513
38.2173
64.7945
75.0794
105.353
101.136
45.0835
89.125
60.3069
61.196
85.113
88.1006
122.341
124.519
212.202
76.5921
92.2309
122.496
204.111
62.2215
65.9192
62.028
81.1257
63.6789
121.402
46.9805
46.1186
82.0665
62.5239
8.30014
5.32747
6.77465
17.0876
7.85116
25.6538
4.47859
7.87797
14.4573
7.52235
9.50572
9.27983
10.5359
9.53825
10.0891
8.89134
8.39286
9.69236
10.6138
9.75032
10.5899
10.4506
9.85749
10.2968
9.91166
14.9606
15.0228
15.2541
13.937
16.9699
17.1597
14.404
13.215
17.157
14.7827
15.3965
11.6004
12.6538
10.7824
13.701
9.10928
14.9644
13.1005
8.56171
24.9352
23.4652
32.8661
28.7014
28.0427
26.87
28.3122
34.7071
37.1
35.9973
36.8165
41.8275
45.2175
8.36072
7.47352
12.8472
15.515
7.94266
8.39251
14.7144
11.449
7.49075
7.2782
11.894
8.50895
8.07633
8.24749
9.65965
14.1133
16.169
19.6211
15.4199
19.0691
16.3764
10.4461
22.8527
13.1763
22.5274
23.2148
22.4165
28.247
24.9015
9.44617
8.58861
20.6679
26.5351
28.2291
20.7128
3.34013
3.31157
3.21912
3.27599
3.29144
3.33702
3.37371
3.31431
3.18251
3.18107
3.31687
3.36528
3.27314
3.38146
3.34913
3.72765
3.57002
3.58705
3.2487
3.45921
3.61256
3.31079
7.35402
6.87353
7.19378
6.73842
7.13219
7.33928
7.81641
7.68879
7.34799
7.03575
7.12404
7.67377
7.11473
7.81504
7.50485
7.41082
7.17018
3.56256
3.76154
4.06463
4.06498
3.92127
3.6931
3.53869
3.58049
4.15844
4.40658
4.90019
4.71525
5.32338
3.26728
3.78446
4.02221
3.92023
4.22777
3.87213
14.8854
12.8644
8.20917
8.50905
7.69124
7.45654
8.42893
10.155
15.9713
16.2755
15.1579
15.4865
17.4767
11.3566