/*--------------------------------*- C++ -*----------------------------------*\
  =========                 |
  \\      /  F ield         | OpenFOAM: The Open Source CFD Toolbox
   \\    /   O peration     | Website:  https://openfoam.org
    \\  /    A nd           | Version:  10
     \\/     M anipulation  |
\*---------------------------------------------------------------------------*/
FoamFile
{
    format      ascii;
    class       volScalarField;
    location    "5";
    object      p;
}
// * * * * * * * * * * * * * * * * * * * * * * * * * * * * * * * * * * * * * //

dimensions      [0 2 -2 0 0 0 0];

internalField   nonuniform List<scalar> 
75457
(
-48.8532
-44.2025
-40.9328
-37.079
-31.847
-34.3691
-44.1868
-44.7209
-31.1101
-24.9036
-28.7304
-32.1261
-31.9139
-28.9407
-4.42804
-5.24372
-5.54686
-5.05905
-5.8552
-5.42485
-4.54081
-5.64094
-5.36555
-5.82894
-5.71162
-6.37317
-5.66319
-1.04747
-1.06242
-0.652956
-0.476711
-0.595431
-0.606198
-0.667056
-0.366067
-1.11254
-0.972243
-1.17588
-1.32124
-0.461846
-0.83971
-0.445655
-0.844116
-12.9251
-12.818
-11.8962
-11.9945
-12.5371
-6.08001
-6.75852
-7.17266
-6.55141
-6.45746
-6.61137
-7.16388
-7.2744
-6.88301
-7.18261
-6.55983
-6.79792
-6.57186
-6.47555
25.6872
25.9813
25.716
26.0791
26.3524
26.3645
25.9863
26.0282
26.34
26.1151
25.7895
26.107
26.0897
25.7326
25.9755
-7.01091
-8.13841
-6.46962
-8.19554
-10.4831
-4.7437
-4.83083
-7.09669
-8.07701
-7.08634
-7.3623
-4.88753
-6.37075
-4.71922
-4.99091
-6.45762
-5.25506
-10.1714
-10.401
-10.4076
-10.7576
-10.373
-10.1864
-11.361
-10.6114
27.0513
26.9422
27.2005
27.2176
27.086
26.9377
26.857
27.3047
27.307
26.9245
26.9336
17.8704
18.5248
20.9453
20.5262
17.9285
19.4865
19.5201
18.9973
19.3506
21.0119
20.7996
21.3334
21.8649
20.6367
20.0822
18.901
21.2873
20.2993
9.67245
9.64421
9.09997
9.95645
9.57388
11.0272
10.7281
10.6117
10.6145
4.15589
3.71387
4.26032
3.82319
3.29418
3.76559
3.79882
2.89649
-9.89137
-9.91723
-9.35514
-9.53422
-9.87525
-9.56233
-9.32323
-8.88389
-7.39059
-7.47095
-8.8542
-8.59026
-8.20047
-8.82439
-7.75825
12.0948
13.66
13.8953
13.2411
13.6542
10.0072
11.3837
12.9127
11.9289
12.871
10.222
8.94032
9.52206
-12.289
-12.7231
-12.5857
-12.76
-12.5326
-12.6734
-12.1078
-12.8501
-12.6423
-12.8489
-12.8215
-12.7641
-12.6737
-12.7176
-11.4319
-9.75716
-12.0578
-10.0581
-9.92028
-11.7773
5.10775
5.80777
4.41807
5.36134
3.56606
4.3141
6.79485
6.42743
5.62702
2.91289
2.84917
-11.3147
-11.1478
-11.5305
-11.4752
-11.4737
-11.3893
-11.2162
-11.0846
-10.6128
-11.4954
-11.2994
-11.0335
-11.3887
-10.9444
1.06738
0.215575
0.554644
-0.981967
-0.502201
0.118142
-0.109273
1.139
0.713627
-0.0570705
-0.678778
-1.18629
0.836099
-0.680149
-10.6435
-10.7266
-10.1527
-10.0074
-10.4131
-10.332
-10.6576
-10.5532
-10.877
-10.0278
-10.3679
-9.74512
-10.5017
-10.7729
-10.4073
-10.2152
-10.4955
-14.0481
-13.6898
-13.7016
-13.6165
-15.0522
-13.4856
-13.6522
-12.8822
-13.4554
-14.1564
-12.9458
-13.986
-12.9659
-13.0138
-13.1112
-13.0928
-12.6895
-12.5598
-12.9289
-12.6805
-12.4672
-12.838
-12.7906
-12.6467
-12.5916
-8.11729
-7.95254
-8.1654
-7.80209
-7.8069
-7.66383
-7.49195
-7.48949
-7.46639
-7.80656
-8.08635
-7.94699
-7.39524
-7.70887
-7.71702
-0.23887
-0.164687
-0.152092
-0.31504
-0.102702
-0.12145
-0.47047
-0.397237
-0.166896
0.165311
1.29604
0.346837
0.793444
0.998795
2.23842
0.88257
0.612386
1.22797
0.489645
0.578557
-0.260006
0.317637
-2.62342
-3.8696
-0.666732
-1.88446
-3.02841
-4.33259
-4.21006
-1.59785
-3.70267
-4.11069
-3.70369
-9.62363
-9.75171
-9.93867
-9.93218
-9.81821
-9.56704
-9.60578
-10.0337
-10.2436
-10.0252
-10.2451
-9.44201
-9.7265
-9.84397
-10.0124
-9.72106
-9.91091
-12.183
-11.6875
-11.4005
-13.2619
-17.3215
-16.2643
-16.0878
-14.2752
-14.7382
-13.3044
-15.0792
-3.55846
-4.30224
-4.99947
-4.89663
-4.40564
-4.49875
-3.75495
-4.60045
-4.98137
-4.10585
-4.37708
-0.191291
-0.165137
-0.301004
-0.39049
-0.143997
-0.125085
-0.387385
-0.163343
-0.422051
-0.541615
-0.473577
-0.209796
-0.386029
-0.794965
-0.687041
-5.57631
-3.72998
-6.89927
-5.6805
-5.32563
-9.21466
-9.7695
-9.21687
-9.70045
-9.75383
-9.19547
-10.2548
44.6491
49.4025
38.0339
40.7046
43.4568
45.411
45.2173
48.0204
40.4006
44.8488
43.2625
44.2037
40.0863
44.5667
39.0613
40.3665
42.2969
37.4319
29.3483
28.8947
29.5464
30.2147
31.1418
32.0414
29.6184
30.2843
32.6116
35.9712
32.7725
33.094
34.8701
20.4256
17.6716
15.3152
16.9865
21.3127
18.0201
16.6323
18.1116
17.7043
15.8061
23.0174
23.0248
16.4288
17.9766
15.3262
21.3918
23.5335
23.6746
19.7746
19.742
20.3264
21.6117
-12.7782
-13.4346
-13.6466
-13.633
-13.7655
-12.9325
-13.1069
-13.2785
-13.3808
-12.8981
-13.4693
-13.0219
-13.2155
-13.0636
-13.2526
-13.1336
-40.3922
-45.0916
-27.6162
-33.6574
-25.798
-33.8461
-31.8309
-29.3671
-25.3061
-31.3761
-50.423
-44.5678
-29.9094
-40.3695
-26.8077
-27.6172
-1.29166
-1.43055
-1.26481
-0.487444
-0.157331
0.445523
-1.63562
-1.93696
-0.347383
-0.375079
0.452778
0.108224
-0.128114
-0.190089
-0.376959
-0.988516
-1.68003
-0.934157
28.5729
32.8888
31.498
27.8567
29.183
31.9962
35.4345
34.4614
29.6395
35.5324
37.2863
35.466
31.6314
28.4008
29.1931
30.0411
21.8087
21.1925
21.7021
21.4771
20.6816
22.3955
22.9843
22.3899
21.7492
22.743
22.1777
21.3651
22.2078
20.6446
21.3124
22.822
23.304
8.28335
8.10069
7.84382
8.17221
8.1739
8.2682
8.37299
8.37699
8.34731
8.2208
7.95888
8.05637
8.42939
8.12098
8.33652
7.57101
7.61784
-4.71122
-5.6463
-7.18657
-6.05545
-5.45762
-5.15244
-5.06271
-4.78906
-6.15259
-5.95373
-6.98165
-6.92701
-5.51301
-5.58506
-7.27733
-6.15342
-5.41739
-6.36733
-4.53026
-4.86235
-4.35918
-4.49032
-3.98918
-4.02602
-4.08353
-4.17236
-3.62547
-3.89872
-3.98893
-3.47322
-3.34815
-3.75515
-7.3578
-6.70057
-7.67373
-8.55281
-8.71151
-8.13605
-7.63818
-7.45917
-7.42469
-8.82809
-8.65095
-8.43914
-7.83054
-7.34436
-7.79131
-8.34356
-8.505
-8.71832
15.8603
11.609
12.4588
19.3809
15.6663
9.7548
12.6329
13.0588
9.44644
17.8914
12.9103
10.0097
-11.6501
-11.3577
-10.931
-10.8946
-11.2899
-11.329
-9.60856
-10.2799
-11.3243
-10.9907
-11.1039
-10.1913
-10.4592
-11.1206
-10.9991
-10.89
-5.15294
-5.64047
-4.67403
-5.08541
-5.93724
-6.03073
-5.52406
-4.36216
-4.27949
-4.5617
-4.61943
-5.59979
-5.83299
-4.80365
-4.39363
-5.29869
1.20368
0.500749
-0.162238
2.92105
3.82417
1.42458
2.08991
-0.979673
0.578127
1.22355
2.80353
1.72836
2.73175
3.49128
3.21475
0.240269
0.346
1.57207
-0.217802
-2.36098
-1.71199
-2.14462
-3.82038
-2.91443
-2.11132
-3.94979
-3.63373
-2.3955
-2.80141
-2.83072
-3.92058
-2.7183
-2.56598
-0.347188
-0.281998
-1.11559
-1.13655
-0.88773
-0.985822
-0.969879
-0.755903
-0.984013
-0.85161
-1.07168
-0.8004
-1.19708
-0.863555
-0.824019
-0.855013
-0.784706
-1.08156
-6.68106
-7.23875
-6.40518
-5.17795
-5.73383
-9.13783
-6.74459
-6.42103
-6.5272
-7.48383
-8.87145
-7.9347
-8.19986
-8.62556
-8.5372
-8.97636
-9.53562
-8.65596
-9.93303
-6.67184
-6.61946
-9.2215
-10.2605
-9.74698
-9.39335
-8.904
-9.95892
-8.60325
-8.23886
-8.70014
-9.17468
-7.67121
-13.5259
-13.5786
-13.2296
-13.4634
-13.1525
-13.4124
-13.4584
-13.2471
-13.0189
-13.087
-13.3464
-13.0859
-13.2783
-13.0683
-13.2014
-13.1535
-13.1413
-7.71643
-7.84203
-9.71746
-10.3039
-8.48645
-8.8703
-9.95818
-9.98519
-8.95942
-10.0284
-9.04955
-3.26331
-3.14007
-2.42807
-1.56321
-2.11897
-1.22683
-1.80092
-0.641937
-2.12276
-1.7788
-2.05615
-1.88891
-1.03556
-2.98245
-2.63938
-2.70989
-3.08188
-2.92522
-2.30307
-2.77177
-2.48334
-3.10278
-3.06839
-2.31833
-2.30062
-2.78466
-1.94556
-2.72331
-2.42678
-2.02046
-2.48298
-2.09505
-2.50078
-2.67755
-2.06001
-8.21746
-8.30063
-8.42907
-8.23843
-7.69357
-6.91977
-8.16302
-6.77004
-7.43769
-6.13075
-6.49846
-7.0343
-7.80135
-6.71198
-6.85407
-8.19744
-7.07445
-6.16694
-6.50246
-6.04
-7.94814
-8.03194
-8.33447
-8.33526
-7.47715
-7.52762
-8.15923
-8.151
-8.02272
-6.80215
-7.19759
-7.19027
-6.8477
-7.33841
-7.32148
-7.58438
-6.75314
-6.8642
-7.47885
-7.56196
-6.80386
-6.92579
-6.24014
-7.55987
-6.767
-7.48238
-6.90584
-8.06425
-6.08746
-5.98848
-5.55262
-6.41244
-7.11092
-6.82411
-7.59272
-6.64787
-6.34492
-6.94394
-6.71782
-8.94358
-8.53512
-9.90189
-9.20691
-10.0363
-10.8058
-10.3889
-10.1033
-9.59777
-9.64771
-10.5221
-10.5782
-11.0341
-9.99127
16.7598
17.436
18.388
17.1769
18.0118
16.9014
17.9565
16.7033
17.2276
18.2753
-12.2751
-12.065
-11.3506
-11.4037
-12.3774
-12.213
-11.6636
-11.8656
-12.1906
-11.3283
-11.848
-11.5416
-11.6511
-12.1504
-11.682
-12.0226
-12.1404
-14.4606
-13.853
-15.2307
-14.8346
-14.8331
-15.4794
-13.9317
-14.407
-13.7578
-13.9065
-14.5423
-14.8544
-13.5796
-14.5213
-14.427
-14.2772
-14.4016
-15.0106
-14.1242
-14.1735
7.75615
8.16748
8.91228
8.30053
7.92826
9.15733
5.6167
7.18286
7.42168
7.13425
6.42855
8.57129
8.00915
8.58642
7.6941
7.25837
-15.4381
-16.4669
-15.283
-14.4913
-15.4571
-12.9086
-14.557
-15.1193
-15.1321
-15.7164
-12.0333
-13.4831
-14.815
-13.7603
-14.5617
-12.9943
-12.5334
-12.454
-13.3754
-13.6228
-14.0112
-12.521
-12.2395
-12.0287
-12.9909
7.04939
6.0349
5.69937
5.79404
5.76197
4.37063
4.0309
3.47273
3.57166
4.08459
4.1579
3.27406
4.85727
4.06197
5.7114
5.83033
4.00162
5.02344
4.63841
-12.1763
-12.1591
-13.2311
-12.8319
-14.0819
-12.3635
-11.9063
-12.9618
-12.8717
-12.1419
-12.0057
-13.0728
-13.2833
-13.8066
-12.8026
-12.4768
-12.2526
-13.3285
-12.7778
-5.75285
-7.3261
-6.27045
-5.64739
-6.45059
-7.26344
-6.6839
-6.01385
-6.13862
-7.94615
-7.80131
-7.07608
-6.7842
-6.43808
-7.58023
-7.91567
15.5114
16.0373
15.2431
15.0976
16.1496
17.1073
17.1755
16.1051
15.9949
16.8535
17.0598
16.0926
17.1756
17.6547
18.4093
17.796
-12.5476
-14.6639
-11.1803
-11.7882
-14.3309
-16.3363
-8.30285
-9.35477
-12.3782
-14.1651
-11.3836
-12.0867
-13.5776
-16.4946
-14.9873
-10.0216
-14.2133
-12.1318
-14.1561
-16.4264
53.5824
47.5961
43.3453
43.017
52.0666
53.3344
46.8332
51.6455
45.8398
47.8467
45.4245
45.9287
42.7157
42.5797
48.3014
16.6514
15.2213
19.9703
21.402
19.2194
16.2924
21.7963
18.3484
20.8222
24.0915
22.9372
24.21
26.0381
23.6508
-16.6577
-17.3785
-16.8935
-17.6155
-15.8943
-16.1828
-14.6661
-13.6105
-15.7183
-15.6364
-14.0185
-13.5834
-16.0862
-14.5668
-14.2349
-14.8029
-6.73968
-6.33203
-6.42061
-6.52305
-6.24139
-6.71713
-6.46368
-6.76309
-6.96169
-6.02665
-6.02642
-5.996
-6.78815
-6.7752
-5.98425
-6.49258
-6.39178
-6.84931
-6.57719
-13.9508
-13.8791
-13.5549
-14.524
-14.5448
-14.5256
-13.6259
-14.6294
-14.4326
-12.8934
-13.4532
-13.4278
-13.6984
-13.4075
-14.813
-14.5294
-12.982
-13.4957
-13.3091
-13.3195
-12.9107
-12.9908
-13.5697
-12.9187
-12.9671
25.2237
24.3421
24.3802
24.8882
25.0787
24.6249
24.3917
24.4529
25.1738
24.9409
25.0205
24.7421
24.9028
24.6577
25.0056
25.0626
25.0395
24.811
24.4464
25.1422
-9.70479
-10.4948
-9.64682
-10.2198
-9.71029
-9.35648
-9.51725
-10.2822
-9.31635
-9.6545
-9.87471
-10.0288
-5.40976
-5.386
-4.83539
-4.58474
-4.37497
-5.4402
-5.46864
-5.67949
-5.24896
-4.6268
-4.57064
-4.85216
-5.1173
-4.50465
-4.74571
-4.87262
-4.94166
-4.81992
-3.28118
-3.11399
-3.38766
-3.08203
-3.22073
-3.62292
-3.698
-3.89699
-3.92891
-3.14809
-3.6002
-3.27127
-3.95972
-3.83313
-3.41815
-3.2184
-3.98935
-3.65585
-3.17913
-2.38432
-2.50468
-2.69571
-1.84024
-2.28093
-2.12337
-1.83812
-2.75923
-2.45056
-2.88198
-2.64898
-1.96373
-1.96276
-2.18508
-2.94731
-2.87017
-7.00817
-6.51791
-7.12872
-7.00308
-6.3732
-6.25599
-6.33304
-7.21734
-7.37097
-12.9833
-12.7262
-12.715
-12.9985
-12.9972
-13.0306
-12.8083
-13.1374
-12.886
-12.8436
-13.0345
-12.9071
-4.92065
-4.59991
-4.90029
-4.84811
-4.90404
-5.04618
-5.08283
-5.10339
-5.28587
-5.05078
-5.63319
-5.45667
-5.47699
-5.60829
-5.43873
-5.47811
25.2372
25.3896
25.2076
24.9181
24.5173
24.5022
24.1091
24.0579
24.3683
24.94
-9.72442
-9.53428
-9.81823
-9.58565
-9.84414
-9.7487
-10.0356
-9.98982
-10.0145
-10.0836
-9.83009
-9.66265
-9.90554
-10.2339
-10.1111
-9.8996
-9.83097
-9.87607
-6.43648
-6.92285
-6.40027
-6.55152
-6.51553
-6.47383
-6.75863
-6.44302
-6.67139
-7.17315
-6.83779
-7.04855
-6.78409
-6.99409
-6.40436
-6.68944
-6.88713
-6.64583
4.96609
4.37333
3.82843
4.74145
2.86707
2.38717
5.30326
4.81028
3.59444
4.95394
3.98726
3.15105
3.84304
3.86359
25.6577
25.5612
25.4191
25.2528
25.7124
25.2783
25.0941
25.1303
25.4503
25.2559
25.4582
25.5849
25.126
25.0991
24.9878
25.029
25.4214
25.213
25.3729
25.1273
39.6633
38.1601
31.2448
34.4593
24.0802
28.2401
14.3113
29.535
29.5984
26.873
32.5301
22.9642
34.3941
39.5131
35.544
43.1764
24.554
35.9683
31.3821
-16.3085
-17.5366
-12.8923
-12.0732
-17.3717
-20.4681
-20.3724
-23.2153
-12.8737
-12.8575
-25.9946
-22.4676
-15.776
-19.5274
-22.2864
-16.2529
-16.8611
-23.581
-19.4215
-20.2944
-0.50067
-1.08723
-0.696433
-1.04793
-1.24747
-0.760172
-1.84941
-0.807691
-1.28284
-1.30247
-0.848247
-1.13247
-1.43986
-0.749047
-1.6283
-1.7238
-1.58031
-1.45361
-0.922138
-14.7351
-15.587
-19.9983
-20.9044
-17.0729
-16.368
-15.5516
-16.8558
-19.373
-16.1374
-17.4846
-17.3834
-18.6421
-18.6095
-19.3981
-19.0932
27.8779
27.8292
27.6958
27.7722
28.0389
28.0547
27.9345
27.9602
27.7728
27.6419
28.1475
27.9248
28.0909
28.0885
27.7225
27.6404
27.8028
27.9679
28.0986
27.7042
-3.12966
-3.24613
-2.7006
-2.29651
-5.04818
-5.11187
-5.47194
-6.2862
-4.37188
-3.07312
-2.75647
-5.04529
-5.34749
-5.85143
-6.55335
-6.47053
-4.30229
-5.98467
-5.77268
-4.75567
27.8141
27.6676
27.7493
27.7916
27.7809
27.8182
27.7441
27.8652
27.9342
27.9539
28.0256
27.7178
27.8788
27.8734
27.971
27.9564
27.8305
-6.17573
-6.0368
-6.25797
-6.5075
-6.38908
-6.03974
-5.80333
-6.24027
-6.36834
-6.5162
-5.86808
-5.46819
25.6989
25.5219
26.0801
26.0885
25.8338
25.788
25.4218
25.6336
25.8861
26.0386
26.0829
25.7128
25.5163
25.6363
25.4494
25.6374
25.4305
25.7075
25.7742
25.4308
25.6798
18.9852
18.5442
18.6341
19.0579
19.1225
18.2824
18.6843
20.3397
20.5227
20.3186
19.5989
19.2523
18.861
18.7759
18.8418
19.5076
19.4296
19.3955
5.41117
5.68683
5.73616
5.30312
5.59133
6.2832
5.90952
5.91286
5.70375
6.84633
6.63601
6.89655
6.72757
5.81321
5.5348
46.2884
41.2233
35.4239
36.8575
43.1951
41.2038
52.5729
38.0516
44.9353
39.8515
52.1972
51.9477
47.6869
41.0264
-5.36097
-5.19691
-5.39997
-5.75896
-5.71641
-5.82775
-5.45815
-5.49104
-5.57466
-5.44433
-5.98304
-5.97201
-5.72915
-5.14511
-5.31821
-5.60723
21.9141
19.8803
21.4936
19.7155
19.3903
19.7681
20.0915
20.1479
20.9834
21.387
23.8112
23.308
22.3501
24.6176
25.2002
22.6471
23.6754
26.9517
26.8997
26.486
26.594
26.6891
26.7579
26.9753
27.0193
26.4437
26.5689
26.9267
26.9449
26.9055
26.7699
26.73
26.8968
26.6911
-21.939
-19.4711
-19.2511
-23.6705
-18.9782
-24.4017
-31.0702
-18.6672
-22.0745
-22.1226
-21.1289
-22.9934
-24.9272
-19.8153
-18.4768
-18.3164
-14.6213
-16.0137
13.6067
13.2827
14.9059
14.5893
13.8432
12.5725
12.9477
14.5073
15.0279
14.6263
14.3555
14.6817
12.9603
12.715
12.0956
13.9345
12.7751
13.3803
12.3768
13.8881
13.1877
12.9599
-6.0643
-6.60978
-6.40785
-6.41949
-4.65356
-4.88181
-3.26324
-3.35725
-4.94092
-5.43248
-5.80646
-4.46627
-3.44696
-3.5178
-3.33395
-3.3512
-4.86156
-5.41558
-4.60446
-4.74456
-5.23572
-4.97994
-4.74246
-5.13661
-5.44429
-5.27354
-5.31464
-4.53001
-4.55721
-4.4365
-4.63769
-4.60921
-5.37921
-5.38336
-5.28292
-4.94983
-4.55268
-5.01616
-5.99126
-6.06148
-6.11508
-6.23494
-6.46152
-6.59592
-6.05406
-6.51858
-5.83795
-6.16155
-5.75083
-6.45125
-5.49877
-5.77234
-5.56847
-6.50418
-5.92671
-5.65454
-6.43712
-6.45368
-5.89261
-5.44216
-7.89599
-5.05923
-1.94644
-9.07667
-8.83728
-0.160056
-2.34258
1.80498
-4.38023
0.357445
-4.65111
-3.13439
-7.19357
-7.09862
-3.67867
-2.50367
2.19902
-1.38645
2.4114
2.26973
0.798997
0.172699
0.600014
1.15
2.68452
2.55174
1.6662
0.956751
0.191503
0.524215
0.614347
0.331624
1.30899
1.15215
2.25736
1.06016
0.345823
0.959326
-10.7132
-10.2649
-10.4127
-10.5346
-10.6789
-10.677
-10.9475
-11.2341
-10.6715
-11.3124
-10.8283
-10.5275
-10.62
-10.5315
-10.6351
-10.5402
-10.6117
-7.64437
-7.78431
-9.03121
-8.6108
-8.40269
-8.64452
-8.82219
-8.55433
-8.00624
-8.72484
-8.19095
-8.73399
-8.41172
-8.48442
-3.28831
-3.57366
-3.72026
-3.99827
-4.19105
-4.32745
-3.28622
-4.37873
-4.70086
-5.11573
-5.12046
-3.61389
-3.95862
-4.73445
-4.80217
-3.60213
-4.11791
-0.0271706
-0.0537398
-0.200562
-0.0195958
-0.112071
-0.154661
-0.143156
0.0104949
-0.121935
-0.158758
-0.297733
-0.494171
-0.654747
-0.412224
-0.175921
-0.282349
-0.390386
-0.439195
-0.393305
-0.545209
-0.269394
-0.162105
-0.611241
-0.0590744
-0.271271
-0.292203
-0.348139
-0.511775
-0.2949
-0.347308
-0.407124
-0.0408191
-0.130573
-0.34906
-0.545142
-0.217678
-0.283395
-0.526158
-0.17002
-0.288595
-15.2249
-17.7428
-21.0536
-21.1984
-20.3378
-20.7647
-15.8413
-18.5081
-20.0009
-14.6717
-16.9649
-18.0119
-19.6953
-18.4087
-18.0623
-18.042
-16.696
-2.65713
-2.63955
-3.03285
-1.83371
-2.44264
-3.255
-3.52713
-1.75953
-2.03977
-2.96129
-11.4812
-11.5973
-11.9884
-12.3488
-11.4757
-11.399
-11.5717
-12.2928
-12.1388
-11.8654
-11.8678
-11.5029
-11.6713
-11.0822
-11.0989
-11.4068
-11.4352
-11.4335
-10.0234
-9.98252
-10.0858
-9.70369
-10.1958
-9.87518
-9.88389
-9.79933
-9.51379
-9.59078
-10.1864
-10.3197
-9.97792
-0.572646
-0.38967
-0.751606
-0.486333
-0.736248
-1.07099
-0.848022
-0.292504
-0.219608
-0.571667
-0.946856
-0.922985
-0.285114
-0.327957
-11.1327
-11.0661
-11.3742
-11.2743
-10.9316
-11.0381
-11.2813
-11.1086
-11.0957
-11.0026
-10.9998
-11.294
-10.9403
-10.7346
-11.4579
-24.0843
-22.2465
-21.1899
-23.4185
-22.1009
-21.7897
-24.284
-25.6734
-25.6591
-26.2005
-26.2764
-27.1668
-22.2913
-22.9381
-24.1393
-22.9037
-23.5613
-26.1655
26.938
26.9334
27.1794
26.5438
26.6544
26.6137
26.7211
26.5463
26.856
26.8362
-11.1038
-11.1757
-11.2275
-11.4233
-11.0958
-11.3929
-11.0318
-11.102
-10.912
-10.9862
-11.0649
-11.3521
-11.437
-11.2083
-11.4569
-11.0021
-11.2001
-11.1918
-11.0449
-11.2224
-11.2819
-11.1698
-3.768
-3.78718
-3.55722
-3.57955
-3.53241
-2.62136
-3.46307
-3.68251
-2.70465
-2.92758
-2.5882
-2.21277
-2.68307
-2.86385
-2.53187
-2.05476
-2.26948
-3.39327
28.5411
29.5201
30.7554
29.4491
28.0807
30.5273
28.6798
29.6265
25.9575
27.8785
29.4301
26.6258
26.9299
25.6721
24.4206
27.5407
25.3788
24.2372
25.3009
29.8614
27.8244
26.7006
24.1929
29.197
30.5467
31.6895
31.2554
35.6305
34.4621
32.0562
34.9321
27.9972
27.2973
35.7333
36.8501
33.3315
36.2969
27.6355
27.7532
27.8008
27.6076
27.7259
27.6115
27.7965
27.7257
27.5662
27.7156
27.5053
27.5371
27.7772
27.7042
27.7135
27.7863
27.1203
22.8856
22.4421
24.7162
25.8593
27.7322
25.8115
25.9113
22.1851
21.4854
26.031
23.9869
25.4817
22.7143
24.7316
22.6018
22.3382
23.4554
24.0072
23.0597
23.7338
24.7682
24.5744
23.938
23.1642
24.804
25.1675
24.6161
19.87
19.4899
21.6494
23.0856
11.3055
10.3481
20.2641
20.1831
11.0103
13.2442
15.6921
15.7825
17.3128
14.8115
12.551
10.4017
25.8379
25.0124
25.3689
25.8849
25.0877
26.4007
25.9973
25.2021
25.209
28.0185
27.5925
27.2605
26.7155
25.6193
26.7506
26.1867
27.2154
26.607
25.9705
27.506
7.13926
8.72477
3.62628
0.664418
1.83193
4.44531
11.8622
3.58468
7.32742
7.25733
1.1709
6.06051
6.7174
3.79059
6.72852
13.1484
13.1918
11.604
9.69297
7.99138
16.9537
14.0979
14.0545
11.2731
15.2387
15.2047
15.2484
12.6522
11.3005
12.3427
12.3795
13.1175
13.5316
26.7429
26.8015
26.5759
26.4706
27.1856
27.1673
26.6716
26.5071
27.3528
27.348
26.7416
27.0451
27.329
27.2877
27.1696
-11.9801
-11.777
-12.646
-12.7962
-13.3754
-12.3262
-12.1295
-13.853
-13.6287
29.5992
28.7266
27.7379
27.6961
28.406
27.8314
30.0407
27.4922
31.2595
29.8376
27.6416
29.4856
30.1059
30.4399
30.9183
26.7499
27.0515
28.8128
30.9414
29.6169
27.2213
28.0852
1.24142
1.96088
1.40906
-0.636149
0.42856
1.43225
-1.67558
-0.28534
-0.0303018
-2.01799
-0.934702
-3.064
-2.1262
-3.08433
-3.57431
-2.84204
-1.6573
-0.0535139
-3.94337
-1.16698
25.5398
23.9164
28.5167
24.1748
26.0015
32.5849
29.8991
26.061
29.8358
25.2021
27.578
33.365
31.1994
31.98
35.4359
28.8219
28.2632
26.4975
30.9522
24.9134
28.0859
25.8971
29.5672
34.0589
34.9697
32.9618
-10.8858
-11.8861
-11.3546
-10.8134
-11.2876
-12.068
-11.3551
-11.0365
-12.399
-11.0436
-11.3112
-11.677
-10.9958
-10.6722
-10.5328
-10.9404
-10.9435
-11.7502
-11.1244
-10.4934
-10.5785
-10.6085
-10.4678
-10.9051
-10.5958
-10.8707
-8.21617
-7.81013
-8.44319
-8.75235
-8.13135
-8.31496
-8.02423
-6.41259
-8.30524
-5.75709
-8.13448
-7.44022
-6.80785
-7.63419
-8.54474
-8.57433
-7.92204
-7.62809
8.03838
7.52849
4.1751
6.02055
4.81313
2.90494
-0.47075
4.10119
4.42168
1.96559
-2.72135
0.864972
2.38699
22.8599
23.6576
23.9958
22.6533
24.3297
24.1012
24.5134
23.6755
23.7844
22.8121
22.9553
24.8536
24.2489
-13.9951
-13.9461
-14.5147
-14.188
-14.1832
-14.5042
-15.9882
-15.315
-16.9869
-14.9773
-15.2205
-14.4824
-16.2384
-12.8779
-11.3575
-11.198
-11.6789
-11.9486
-12.4844
-12.5012
-12.9244
-11.4115
-11.6398
-12.0053
-11.7071
-11.3596
-11.6264
-11.5583
-11.0177
-10.6854
-10.938
-11.0195
-11.0736
-10.7372
-10.5911
-10.5367
-10.3914
-10.7535
-10.8603
-11.0445
-11.0634
-10.8886
-10.613
-10.7938
-11.8589
-11.4349
-11.5677
-11.3445
-11.517
-11.284
-11.4347
-11.9205
-11.6041
-11.1759
-11.6267
-11.7035
-11.6195
-12.2212
-4.32271
-4.87506
-5.21179
-3.91856
-4.95032
-5.78026
-5.57673
-4.70139
-4.47997
-4.78611
-4.83694
20.3079
21.8394
20.9482
22.1238
21.3841
22.228
21.3569
20.6128
21.8175
20.9214
22.1988
20.0909
21.6252
29.7351
32.6315
35.0905
43.4219
41.2857
29.7052
47.0234
46.1708
33.2216
38.7837
31.3032
33.4302
42.0251
45.9674
48.7186
36.7907
38.6276
35.5492
45.2134
43.1972
41.3169
38.3754
30.7504
30.879
30.6445
29.4352
29.2478
27.9486
28.4196
28.6918
28.1844
27.0769
27.2073
17.3836
16.7227
16.4991
16.0701
18.4828
17.9823
16.3888
17.7486
17.0204
16.1449
15.3244
15.5455
17.1968
18.6441
18.8254
16.1669
15.62
17.7736
15.0663
29.1635
29.4481
29.3445
29.3438
30.0825
29.908
29.6992
29.5456
29.5394
29.9447
30.6915
30.4155
30.8441
-13.854
-9.52024
-6.78253
-10.6637
-8.9089
-4.21688
-4.3907
-4.34411
-3.15328
-7.39225
-5.09648
-13.8105
-17.1882
-7.68409
-4.62663
-11.1768
-8.5022
-17.2309
-11.958
-17.8893
-10.8151
-10.572
-10.557
-10.5955
-10.6867
-10.3094
-10.4148
-10.6259
-11.0595
-10.4935
-10.3706
-10.9846
-10.7254
-10.4212
-10.5026
-10.4101
-10.4937
-10.196
-10.5013
-12.6817
-14.1241
-11.5114
-11.5324
-11.1156
-13.5588
-12.2236
-12.0934
-11.8591
-12.0051
-13.5724
-15.6
-13.2489
-13.1504
-11.3588
-9.32698
-11.0933
-10.6374
-9.76152
-11.4693
-13.6449
-10.5975
-8.81578
-9.88545
-9.27265
-11.1104
-10.1344
-3.11924
-3.54508
-3.83823
-3.71187
-3.96305
-11.7972
-13.6028
-12.0821
-13.6836
-17.4009
-12.1501
-15.4774
-18.0285
-17.9438
-23.033
-24.5713
-19.739
-19.813
-20.6407
-15.6712
-1.8624
-2.10468
-1.17309
-2.3289
-2.88091
-2.06577
-2.91955
-2.03516
-3.13597
-1.30183
-1.03459
-2.35944
-2.45168
-2.41652
-0.580042
-1.68844
-2.50674
-1.647
11.1496
8.95071
4.14016
11.7177
-3.08162
-13.975
11.2956
0.921815
10.5013
4.27801
5.12625
-26.727
-20.8644
-39.978
-1.94608
-2.66988
-5.11213
-16.99
-8.52933
-2.04215
-19.2946
-18.8177
-19.006
-17.5714
-17.8784
-16.9045
-16.7666
-16.5894
-17.8278
-17.9405
-16.2562
-16.7942
-17.2684
-16.4737
-14.5454
-12.8802
-13.3347
-15.3679
-11.0767
-11.7774
-13.1891
-15.3248
-12.8995
-12.3166
-15.1617
-13.9994
-10.1427
-10.8988
-10.1093
-10.5196
-10.7139
-10.9475
-6.12272
-6.95666
-5.81522
-8.44831
-11.7916
-6.95274
-14.3866
-13.1285
-14.1789
-14.0354
-3.41854
-3.53917
-4.0489
-5.5985
-8.42902
-9.48312
-10.2552
-10.812
-5.12949
-8.2445
-5.72741
-5.8152
-6.75327
-8.42861
-8.5241
-7.90405
-5.0884
-5.02965
-6.16051
-3.2876
-3.29379
-6.44822
-8.56125
-5.45303
-4.36659
-3.19748
-2.65664
-6.91598
-4.47795
-4.83466
-6.22037
-4.90354
9.89974
10.4963
7.5566
7.9022
10.6435
8.72517
8.22242
8.90616
9.39309
8.88202
7.82818
8.33265
8.52448
7.5364
10.3497
-14.1979
-9.98695
-11.0894
-13.193
-15.2977
-13.6495
-9.77252
-14.0262
-8.16186
-7.7511
-8.69929
-8.49034
-8.5856
-8.94285
-8.89245
-8.09023
-9.00662
-9.10465
-8.35903
-9.24332
-9.96039
-9.57062
-8.45822
-8.55901
-9.67673
-9.53362
-9.65896
-8.75871
-9.38866
-8.32992
-8.82207
-7.97063
-9.28016
-8.88071
-9.40005
-8.68115
-8.39252
-8.96545
-11.1368
-10.9032
-11.4457
-11.1838
-10.9392
-11.3421
-11.9739
-13.0856
-12.4942
-11.9708
-11.6134
-12.1627
-12.119
-12.9262
-12.5093
-11.7229
-12.1187
-12.4182
-1.2123
-0.997305
-0.986327
-1.39687
-1.13947
-1.5054
-1.05152
-1.10616
-1.41325
-1.54133
-1.22189
-1.68153
-2.15365
-2.20643
-1.15805
-1.59511
-1.53624
-1.24217
-2.06205
-1.978
-1.42462
-1.41001
30.1111
29.7701
30.2415
29.8644
29.305
29.9516
30.4696
29.3977
29.525
29.41
28.8236
28.543
28.7557
29.7277
29.2383
29.0194
-11.904
-11.6363
-10.1687
-12.1437
-15.0646
-15.0599
-11.3544
-11.0746
-12.0955
-15.4668
-13.5622
-12.4347
-14.3193
-12.1989
-15.6595
-14.0366
-15.3433
-17.1262
-5.51743
-4.91165
-4.24753
-5.12326
-5.12482
-5.4901
-4.9456
-4.21424
-4.59222
-4.47354
-5.69099
-5.72806
-5.64058
-5.82537
-4.83539
-5.48193
5.01211
5.70526
7.2124
5.68633
4.50386
6.43595
4.8627
6.84837
7.35797
5.49639
6.09572
5.98588
5.73529
7.18602
5.22555
3.64335
5.03796
3.62973
4.0598
5.00794
3.45744
1.76931
-0.838943
-0.923713
-2.52747
-2.44966
1.34667
-3.54885
6.95293
5.68368
-5.32913
0.476227
5.25474
3.83893
-2.38521
1.18707
-13.8811
-13.7211
-12.9617
-12.5969
-12.6218
-12.7066
-12.6564
-12.7164
-12.3727
-11.4458
-11.3729
-11.6477
-3.70486
-3.60091
-3.81248
-3.29296
-3.5781
-3.73571
-3.846
-3.95035
-3.16106
-3.42996
-3.44402
-3.3407
-3.91963
-3.55989
-3.15555
-3.26728
-3.63611
-11.5611
-11.7941
-11.5874
-11.555
-11.6136
-11.8721
-11.7471
-11.332
-11.6775
-11.4533
-11.4202
-11.6683
-11.9971
-12.2831
-11.6333
-11.8604
-12.2665
-11.433
-6.25929
-7.81144
-7.41483
-6.71655
-8.28786
-8.1579
-6.30968
-7.4539
-8.81672
-6.93635
-6.6668
-6.79453
-6.58821
-7.77541
-6.78522
-6.4318
-7.03567
-7.49123
-8.51426
-7.8757
-9.04635
-8.93845
-6.2685
-6.4106
-8.05228
-7.78293
-6.71375
-7.12152
-8.5599
-8.44451
-7.23568
-7.02335
11.4921
11.1782
5.71524
8.54265
10.443
11.2345
11.0822
9.80294
6.91352
9.7656
6.65139
9.19525
9.07046
7.61253
30.4507
30.0994
28.949
29.1437
29.1867
29.5265
30.1925
29.9167
28.8705
29.0706
28.9805
29.6387
29.4633
30.007
-1.49297
-1.31797
-1.76024
-1.8108
-1.65045
-1.88201
-1.51464
-1.73341
-1.47666
-1.83469
-2.06444
-1.94935
-1.45817
-1.6202
-1.97083
0.508753
0.772537
3.24307
3.39404
0.189439
1.55126
1.54378
1.79905
3.14361
3.3154
-0.439987
-0.106247
0.453644
0.952051
1.90617
0.678293
1.62163
-12.2926
-11.2948
-10.0311
-10.8038
-12.7286
-10.9671
-10.018
-12.1087
-11.4478
-12.5281
-10.6264
-12.7398
-12.1106
-12.5657
-10.1819
-10.4053
-11.5128
-13.1911
-12.1934
-10.3076
-11.5875
-10.1365
-9.32704
-8.78347
-8.71257
-9.03397
-10.0453
-10.4673
-9.41637
-9.44465
-9.37723
-10.581
-10.1587
-10.256
-9.68261
-10.5728
-9.87617
-8.9596
-9.04204
-8.88273
-8.98935
-8.62101
-8.62284
-8.28518
-8.67014
-8.55217
-8.09947
-8.17115
-8.42992
-8.35323
-8.59848
-8.04203
-8.29791
-11.8945
-12.0389
-11.9767
-12.1301
-11.4424
-12.2168
-11.2285
-12.1471
-12.139
-11.8476
-11.1341
-11.1959
-10.3206
-10.5443
-10.5065
-11.5747
-11.2023
-10.9722
8.21949
8.36958
7.44215
7.12226
4.44228
2.5559
9.36773
8.68863
1.712
9.60595
7.06979
5.86809
3.00123
5.705
8.13943
8.70373
7.37859
3.51854
4.82464
4.23734
4.24444
4.26794
5.49023
6.18996
4.98987
7.88933
7.69147
7.89411
6.11636
7.54745
6.64347
5.2507
24.1306
23.515
22.8584
23.8684
25.0475
23.7443
25.2658
25.3275
23.9177
23.1644
22.2486
23.8114
22.6244
26.4218
25.459
-5.49717
-5.31191
-4.78016
-4.56586
-6.35969
-5.03236
-5.33606
-4.6311
-5.57377
-5.02758
-5.66143
-4.2066
-4.38275
-3.52
-4.74083
-4.48701
-9.59816
-9.38888
-9.85004
-9.36058
-9.29156
-9.15127
-7.44413
-9.06236
-9.09437
-9.8337
-7.4626
-8.22856
-9.04899
-29.1786
-22.7626
-21.0251
-15.2461
-29.1887
-34.5635
-10.5195
-17.9852
-14.5756
-20.1249
-21.585
-26.2749
-23.7174
24.6889
23.5411
27.7281
25.124
26.5514
27.7836
25.9847
23.3528
21.4458
22.2296
24.9783
26.2774
25.2315
17.5213
19.3909
25.6536
24.855
19.0231
17.4844
19.9439
5.59654
5.48459
5.39612
4.46254
5.46094
4.76313
4.43388
5.11963
5.48295
5.44493
4.89956
5.77666
5.55344
5.08684
-2.67108
-2.23848
-2.36954
-2.61834
-2.21849
-2.70083
-2.88932
-2.93374
-2.6417
-2.77539
-2.9621
-3.10558
-2.89574
-2.2273
-2.33896
-2.07373
-2.0483
-2.55547
-10.9127
-10.7886
-11.0569
-11.335
-11.8775
-11.5828
-10.8234
-11.1052
-10.5669
-11.6764
-11.157
-11.9025
-11.9669
-10.3014
-10.8288
-10.2956
-11.2282
-11.7871
-11.6995
-10.8987
-3.67824
-3.14133
-2.99502
-3.42379
-3.44339
-9.98544
-9.58776
-11.1649
-10.7743
-9.91804
-10.5326
-9.76637
-10.1453
-10.2394
-10.4385
-9.60587
-10.3099
-9.77401
-9.59021
-11.7688
-11.401
-11.8905
-11.1899
-11.6839
-10.6464
-12.0238
-11.9777
-11.4834
-12.2838
-11.9705
9.01813
9.32213
9.33853
9.07981
8.52483
8.42984
8.79603
9.21428
9.72445
9.71238
9.16186
28.5427
29.1599
27.5637
27.5444
28.5731
29.8442
30.1672
28.6363
28.6572
31.2538
29.8841
32.9214
28.4073
27.8336
29.728
10.0725
9.27326
6.40276
7.76039
7.18231
8.57115
6.99059
5.57975
5.73177
7.01635
8.60748
7.66531
9.07229
5.8266
6.38931
7.81163
4.20332
4.26027
6.27934
3.78372
2.56241
21.3192
22.3205
21.6679
20.6364
21.2321
20.5566
17.8797
16.9545
15.3513
15.9241
16.2894
16.0656
19.0421
19.0299
17.0411
17.7097
19.9044
35.4997
37.6475
38.0691
35.5382
34.6486
36.3479
35.5539
36.2676
37.616
34.8643
38.5391
35.3364
34.3762
40.9911
39.5745
39.492
36.1499
39.1785
40.159
36.5953
-3.77601
-3.05316
0.641608
-0.509126
5.95911
-3.26704
-1.76851
3.43309
1.48956
3.9452
9.14717
8.55297
3.33796
6.80573
-13.5182
-13.3654
-13.3514
-13.175
-13.358
-13.5544
-13.1865
-13.1847
-13.2975
-12.9654
-13.0234
-12.9901
-13.0827
-12.8779
-10.7992
-10.4643
-10.3829
-10.7036
-10.2701
-10.7757
-10.3194
-10.8368
-10.5643
-10.6629
-10.5393
-0.294972
-0.174854
-0.0355243
-0.314329
-0.494694
-0.180505
-0.00709011
-0.0826084
-0.0294707
-0.281331
0.0822969
0.0655891
-0.145315
-0.139733
-0.429731
-8.00128
-8.17703
-8.05021
-8.13461
-8.07847
-8.36123
-8.50686
-8.16708
-8.42566
-9.10695
-9.13388
-8.95272
-8.97117
-8.42602
-8.24577
-8.1747
-8.44876
-8.31232
-9.95881
-12.7582
-9.84786
-11.0928
-10.0469
-12.9035
-11.524
-10.6225
-9.37336
-10.2044
-11.7742
-9.28881
-11.1128
-11.7784
-11.0666
-12.1123
-10.5729
-10.9183
-8.43678
-11.342
-10.6046
35.3784
39.0057
37.524
39.3212
35.3906
39.6291
40.4772
37.7903
41.9859
43.6498
40.1942
32.0803
32.9805
37.3449
32.7338
0.627758
0.924317
-1.0066
-0.594022
1.17753
-0.561491
1.69192
0.096623
-0.0616147
-0.560226
18.274
18.229
18.8695
18.8755
17.4782
18.6924
19.2594
19.1371