/*--------------------------------*- C++ -*----------------------------------*\
  =========                 |
  \\      /  F ield         | OpenFOAM: The Open Source CFD Toolbox
   \\    /   O peration     | Website:  https://openfoam.org
    \\  /    A nd           | Version:  10
     \\/     M anipulation  |
\*---------------------------------------------------------------------------*/
FoamFile
{
    format      ascii;
    class       surfaceScalarField;
    location    "5";
    object      phi;
}
// * * * * * * * * * * * * * * * * * * * * * * * * * * * * * * * * * * * * * //

dimensions      [0 3 -1 0 0 0 0];

internalField   nonuniform List<scalar> 
146459
(
-1.83633
2.59393
-1.17565
0.418052
0.81842
-1.06777
-1.58698
-3.23623
4.57314
1.25703
-1.06968
-1.34813
-2.35339
-0.779626
1.97942
1.1536
-0.580657
-1.77273
1.75631
-2.31024
-0.513838
6.8705
3.13685
-8.6078
-1.39954
-2.42853
3.86234
5.43668
-0.361355
-2.79511
0.781057
1.23443
-2.54156
-2.02628
3.31595
1.32745
-26.0068
45.8281
-22.7918
2.97046
-28.025
18.3491
-16.3309
27.7906
9.71244
-16.7186
-20.7844
52.9365
9.80865
-34.9546
-13.8586
-22.1364
7.97001
20.9565
-6.70343
-4.54059
50.2819
23.6111
-18.5699
-1.99213
-27.4946
-34.1902
39.5484
-10.9833
13.314
-29.8253
-38.1718
8.6186
40.7024
-6.73155
-20.6568
12.1983
5.20032
23.3038
7.77463
23.0281
-3.75941
-27.0433
0.0667578
22.2045
-14.4966
16.2824
5.67144
1.07432
-9.68782
10.4831
15.4871
18.7268
-17.869
4.81371
-11.3131
21.2676
8.77234
27.8203
-16.5647
29.5852
-40.8409
13.3998
4.73267
-7.8343
21.7236
-13.8225
-28.1584
15.8951
-11.5597
-3.64172
8.22366
-24.7414
21.8688
16.2724
-9.67284
14.5167
32.2031
3.90118
-14.2354
8.66416
9.41771
-3.37132
-4.07514
0.672608
6.77385
-6.07331
-3.66443
6.36642
7.06097
-6.58516
-4.55095
0.597504
4.16494
2.29852
7.53557
3.46191
-10.4
-17.3001
-16.7347
19.4195
14.6154
-17.0669
20.8668
-3.98151
0.181662
-5.12645
-0.278459
-11.662
-14.9874
-1.44575
-0.867001
-11.2553
-5.1299
10.2905
6.09466
-3.75539
16.6706
7.95161
-15.3064
-2.87898
14.2038
-14.4232
-6.00957
-23.0165
4.1863
15.0748
-15.986
-7.30896
2.96253
-16.4768
-3.22048
-8.29275
9.86005
-10.8037
-20.8626
-10.6016
-8.41144
-2.30189
18.142
-7.42868
-8.19337
-0.778223
0.560149
-11.6986
21.6587
-12.262
-8.45907
0.670575
-0.404879
9.35296
-1.06261
1.17133
-9.46167
-5.40786
6.30176
3.13049
9.00576
-8.95305
-3.1832
-5.63977
8.77026
11.0476
0.434617
-12.5449
-0.803843
1.53721
8.27239
-0.324875
-11.3525
12.8487
1.28152
-9.79996
-13.9147
1.4123
-12.9581
0.0708964
-0.692433
0.112765
0.508771
-0.884249
0.391939
0.563206
-0.127815
-0.559202
-0.197232
0.162371
0.019249
-0.874053
0.959193
-0.404883
-0.390075
-0.224572
0.727412
-0.340759
-0.177131
1.35708
0.483735
-0.298202
-1.54262
0.00413618
0.528594
0.824354
-0.424929
-0.130137
0.171153
-0.112347
-1.67667
-0.0179653
1.47007
-0.649643
-1.00778
0.103522
-0.137805
0.016318
-0.0660839
-0.191229
-0.930524
0.472111
-0.627236
-4.10746
10.2093
6.69601
-12.7978
-1.91709
-17.0318
5.48676
13.4621
-16.1495
10.125
-9.74096
-23.4404
-6.34636
15.8542
-9.5078
-12.131
13.6068
4.011
7.76736
-23.8182
6.30988
-10.71
9.01528
-6.41734
2.46262
-5.06057
-0.616579
5.58756
4.04431
0.137266
-1.26071
-5.2939
7.9579
-1.61448
-6.20616
12.1903
4.9673
-9.1997
6.44632
5.1274
-6.90942
9.37204
0.327474
6.91359
-8.50177
-9.55507
8.26807
13.2395
-8.27224
0.00417152
-6.53258
0.870107
-6.2913
11.9538
-8.9816
-4.60966
7.05868
6.0369
-6.99311
9.85053
-8.89432
0.14791
5.88899
-7.4883
-7.39356
15.752
-0.299959
-9.25993
0.578291
-6.59126
-4.1783
-10.6396
7.32961
-10.7453
1.9573
-0.0554866
-8.65986
-2.02991
-7.624
-1.69142
-4.53914
6.44335
-9.52821
5.49258
-17.0248
10.75
-0.338201
-0.561241
9.2454
9.98648
-13.1538
-0.991337
4.38628
12.832
-9.86759
-7.35065
10.6311
0.447971
-6.69283
4.39441
19.0687
6.51383
-12.0007
10.5832
-5.09632
-9.90886
20.8171
6.1753
4.9217
-23.0609
11.9639
4.71966
-10.5451
5.1892
-10.1351
16.7793
6.98582
-15.4048
-8.3603
-5.62373
16.1809
6.22209
12.1363
-3.89228
-13.8678
9.40338
-0.404275
-2.01329
6.75012
18.8342
-2.22878
10.8102
-8.98567
11.0054
3.21353
-2.08263
23.841
-6.08542
-6.40186
-7.68959
-2.09533
16.1868
-12.731
-8.90676
15.2359
0.0471449
-7.73674
-12.7352
0.051394
-1.21803
-24.2311
16.5423
6.44115
-19.4037
11.7446
-7.98913
12.335
-20.2558
-10.0183
22.285
12.4492
-27.6059
-5.09911
2.43086
-3.09566
-18.5359
-2.59957
-12.2892
-3.54172
-5.30588
-24.3039
-13.6357
-10.7403
-6.85472
11.6796
-0.924811
-3.29568
-7.45915
-5.33655
0.132689
4.99825
0.20561
5.55943
-13.3952
2.49919
-9.41055
8.53088
1.01237
8.96717
-12.8183
-1.48914
4.04029
9.1285
-13.4663
4.70224
7.27496
-0.928916
-2.45026
-10.0872
7.41496
-3.34153
11.1768
-3.13856
6.99152
12.7162
1.29335
10.1619
12.9871
0.109032
-6.12606
8.15645
-2.13942
-8.33735
11.1641
-2.71772
1.32487
-15.7883
-15.0676
-1.36766
13.5446
2.89067
11.7696
-25.5124
10.4019
16.6614
7.67715
-16.1821
-7.47028
8.43769
15.694
0.206868
1.19878
9.09221
0.873118
11.5037
3.2397
-0.010426
17.5403
-10.6088
22.1021
-6.23463
5.39492
11.091
-10.2512
-8.53818
4.66501
-2.36146
-17.8873
5.89693
3.4522
-6.79294
-10.1067
22.2946
6.16371
-8.29165
-4.13106
-5.97566
-3.85762
1.52443
-16.9814
19.3146
20.9333
-21.5485
-3.24237
3.97843
13.5629
3.39192
16.678
-1.85065
-13.303
5.31328
19.1345
-7.76971
5.80307
12.0818
-13.9065
15.6169
3.92502
-19.5017
-0.0402321
-2.02477
17.6416
-13.8913
15.9657
-1.32633
20.9284
-14.2888
19.5768
-15.1
0.799555
6.07251
9.58782
-16.4599
4.40722
6.731
-10.3387
8.17565
7.08013
-10.8486
-2.88332
17.5921
-6.53311
11.4647
-8.27546
0.0590064
6.672
9.64683
7.49973
-12.2805
9.37875
-4.59802
-2.52681
15.4265
-5.39995
0.165489
6.91464
0.96592
-1.78172
10.6128
6.83749
14.9234
11.7785
10.0698
-4.81436
-17.0339
-4.41656
8.77057
7.42449
5.65324
-12.2242
0.768481
17.928
-6.47226
-6.86779
3.41416
-6.18148
11.8347
-16.6652
-4.96408
12.3162
9.3131
11.1456
-6.83776
-20.973
15.7529
-9.03699
-15.3449
8.62909
1.70928
7.98753
6.05605
-5.90073
18.5039
-20.6891
8.12476
7.26279
2.38152
-17.0842
7.43986
6.42941
11.6319
-10.7986
-5.97151
-17.348
6.0651
17.2544
-20.8233
3.58431
11.2675
-4.72824
-6.05988
-10.0352
-14.62
-7.4562
5.6324
6.91609
-10.167
12.0618
11.5773
0.13578
-0.0811785
1.48827
-5.12723
-6.59501
10.234
-8.75166
16.305
-11.5673
10.0244
12.403
-11.5467
-4.07197
6.89765
-10.667
-1.39483
2.23044
-4.97898
-11.1986
9.72024
6.45738
-9.89574
4.91676
9.01234
-2.26597
8.65132
-15.3977
-0.883406
7.30916
-15.7819
6.20674
6.91056
1.9235
-1.5249
-0.707927
-7.13909
0.243506
7.60351
-8.98927
-1.42802
9.70936
13.9257
0.533203
-3.55683
-10.902
14.6437
-9.70732
-2.01411
-1.11193
-0.179278
-6.19116
0.303404
6.06703
-9.01662
8.83734
-4.10863
-6.93222
7.85788
3.18298
8.35022
-12.4589
-8.92257
-0.0940525
12.4519
0.993262
0.520306
-13.9655
-0.100989
12.5529
0.826572
-8.75588
9.00392
0.723862
-9.20747
9.39703
-0.494104
1.24944
-7.87901
0.438422
3.71425
-6.32858
-10.6286
7.77988
-12.7505
15.5993
-10.4327
-0.195868
-4.6713
17.3786
-4.92741
7.2242
-7.49333
-9.26317
9.5323
-3.73974
10.9639
6.01439
10.9776
-10.0377
-6.9543
-4.41834
8.15808
-5.26033
-10.3911
-3.08683
1.3139
7.0443
13.6549
-17.0076
-3.6916
-11.4937
13.8667
3.56496
-18.863
-13.4056
-1.17499
-19.0901
9.24952
-0.897552
5.4816
-6.09415
1.5101
-9.14124
8.24369
-7.94779
0.287086
-5.24807
-5.90103
-2.04676
-8.27864
10.8214
2.42089
-22.3835
3.44536
1.28185
-5.93598
0.0349448
-10.3756
6.86047
-5.51089
3.53135
-9.16545
-0.4567
-5.05419
7.06695
-1.80326
-10.5923
5.32858
5.2515
0.640604
1.17485
3.20073
3.93115
-8.93514
-0.410428
3.61116
-7.25231
7.03897
-0.197087
8.24053
-11.5617
3.15446
-4.42378
6.31174
5.151
3.47579
0.340957
-5.8983
-1.27685
2.82898
0.817217
-1.74002
-3.73269
4.6555
-0.634361
-0.797461
2.24904
-0.35304
-1.36976
2.79197
-1.06917
-2.36333
3.46244
-1.45215
-4.29771
8.3321
-6.39772
-0.894159
-3.40355
0.0541733
3.60108
-5.39528
-1.10456
-1.34381
1.07861
-1.27248
-0.466434
2.23797
-3.45629
-6.09121
5.92869
-17.7034
17.8659
-21.4588
2.90224
12.4654
-2.40227
-10.3995
-8.65703
17.2702
-11.1357
-8.53681
11.037
-5.8228
12.056
-4.3921
14.2763
-3.95546
9.54714
10.3142
-2.44876
-19.0011
4.49137
-15.9966
-0.762732
-0.94408
-7.61023
-18.7859
12.1118
-6.62799
7.10922
-12.593
12.3565
-1.00741
-2.18638
6.67775
-16.687
-4.92284
8.48353
8.79579
0.093633
0.803351
0.0932456
-0.990229
0.743881
0.690179
-1.34043
1.54723
0.616543
1.35712
-1.28349
-1.07119
-2.17722
-0.855815
4.10423
0.656632
-1.04297
-0.684857
-1.52059
0.237554
1.20359
-0.824598
-0.712169
1.38376
-0.0266415
1.73154
-14.0289
13.2439
-13.8477
14.6327
2.54842
-3.7507
-12.8267
3.78785
11.5169
-20.1275
4.82275
6.08545
13.762
-16.0596
-4.98506
7.53348
13.4649
-6.4205
-0.958981
-0.447144
0.712113
13.2
-0.026485
13.7885
11.4904
13.3413
6.50536
-6.58132
-14.9328
12.5298
8.98427
-11.3999
4.97103
-0.152498
-2.59444
-3.87312
-8.4652
-4.7267
-9.2676
7.52658
-7.46198
4.90643
-3.09294
13.0155
-11.464
3.32347
-4.87499
-8.58448
14.7133
6.88667
-6.90108
-5.55653
-14.7996
-3.56542
9.93606
-6.61259
-9.75709
-4.17816
6.47327
-10.1032
-4.38059
-10.7908
-2.31043
-4.69085
-0.0631991
7.06448
9.44188
-4.17049
-1.46702
-3.80438
-6.0483
1.58102
2.33338
2.1339
-1.87554
7.64535
-5.7698
4.26601
-6.14156
-6.10959
0.596883
18.6805
-13.1678
4.50434
-11.0647
0.450761
-12.5981
-5.65402
18.849
-10.0167
-5.61986
3.0384
13.4177
-10.6162
-14.9739
12.1725
14.7792
-7.01547
-23.2844
2.65154
1.43207
2.82143
-5.41077
1.15726
3.74164
-4.41556
2.106
6.61372
-5.95509
-4.98595
4.32732
0.597893
5.45142
0.564408
0.578248
2.84108
0.80286
3.51702
1.24957
-5.16058
-1.49975
-2.95098
-0.215013
-0.516527
-3.8302
5.57079
-1.22406
-1.69765
1.98398
0.923214
0.233222
-6.31702
1.1851
-3.21287
-2.69376
-6.57664
5.4402
-5.67295
1.28154
1.26418
-6.98605
-0.855203
-0.884663
-4.83677
-5.34306
-3.66643
4.04595
-7.85997
-5.27003
5.48744
7.64257
-0.717261
-2.4682
-4.67451
8.44354
-4.23427
-4.92653
-4.61953
4.99061
8.07245
8.51669
-4.26427
-8.48668
-0.498983
4.39614
9.78866
-3.54803
-8.70884
1.43639
3.08225
10.6765
-0.198401
-7.70692
3.5415
-1.14756
-10.8236
-11.7034
7.00779
2.81725
-6.36682
1.74159
5.28476
-7.85497
0.82862
-6.12976
3.88704
3.9843
-14.5948
-0.273637
7.97788
6.89059
-5.14944
-0.9498
-8.49559
8.43549
-1.42715
-3.10751
-3.90083
-5.17594
7.48167
-10.2189
4.76932
-5.30009
-10.0683
2.40584
-3.18574
6.06466
-2.72595
9.01883
8.51517
-4.37425
-5.56807
-2.0562
2.7164
-11.9401
4.01456
0.081138
7.84444
-5.59213
-7.29781
9.26649
-1.5086
-6.899
6.58204
-2.77248
-8.1838
4.17311
0.352724
-5.02348
1.78138
3.32324
-4.79589
-5.81971
2.76875
-9.07697
-15.09
12.382
15.2863
-12.5784
-2.34894
-17.3556
8.52613
11.1784
-26.3792
10.1284
13.9019
9.0957
-13.3247
-13.1265
-9.63758
-7.64591
0.463795
-12.2786
-1.01423
12.829
-0.849192
11.0964
-9.78337
12.7748
-13.4229
-0.201133
-11.2695
10.0773
9.71825
0.563242
-1.75932
-13.8939
-15.8771
15.4886
10.5168
9.617
-11.8454
15.8149
-12.6777
-1.08923
2.17963
-2.24185
-1.21655
17.5783
-14.1821
0.488407
-2.5271
2.40436
-0.365667
0.141273
0.347134
-1.86726
-0.494288
-0.528536
2.89008
-1.72598
-9.16839
-2.81973
6.74105
5.24706
0.0217405
-1.42146
-7.76866
4.06329
-2.87539
-2.91388
-0.623511
4.19251
-7.17691
4.28425
0.0729366
-1.15098
-6.00419
-0.011012
-0.243107
0.601254
-3.6891
-0.253285
2.12911
-4.53996
-0.675567
6.79311
3.3554
3.90999
8.36681
-15.2132
2.93638
8.57535
-11.8259
7.16058
-18.6305
-5.64605
11.3679
12.9086
-15.8204
0.0699343
-2.87994
-6.40091
-12.1088
17.0362
1.47353
8.30074
-4.79466
-9.90699
7.74411
-7.44313
8.06583
-0.184354
16.5038
-9.34256
-1.50214
-0.981255
-16.255
10.977
8.61851
-24.3902
14.8637
-15.9954
7.48399
-14.6859
0.335803
17.6462
-2.71265
10.4428
-5.08233
12.2858
21.6263
4.5107
3.82298
-7.14289
-5.38892
12.4359
5.53181
-8.22997
-9.73779
3.7282
4.94247
3.76528
8.73168
-3.38371
-1.52499
3.37673
8.43719
-1.1883
-3.8388
8.40384
-2.68478
4.31372
-5.1237
-12.9222
6.34256
7.6223
-9.52609
5.63199
9.11988
-2.19249
-1.39557
7.04922
7.01312
2.90792
1.45653
6.69141
-10.2154
-2.69436
-0.828949
-17.6165
-13.0955
-4.1245
2.01002
23.6567
-21.5422
-17.4748
0.113241
13.237
-15.4366
-3.69259
1.65442
-1.88424
-12.8404
16.7346
-8.70612
6.93512
-7.47459
-11.4783
3.51627
11.2407
-4.58065
-14.4256
7.76556
18.2814
3.05503
-10.0958
-7.76062
13.2017
7.71932
9.78951
-6.7784
-10.7304
15.0284
-7.54996
0.2409
-19.5989
8.49559
3.34267
-6.75434
-14.2851
14.0745
-2.94927
-4.66417
-10.3604
-16.0232
-10.1445
6.66387
5.98549
-2.50486
7.75882
-12.9071
-4.99622
-10.2814
13.2793
3.01578
-6.01372
11.5071
-16.4349
-5.35356
2.92449
0.0683479
8.51426
12.4905
3.71328
-13.8779
14.2165
6.32518
0.161148
-6.28018
7.59405
16.1607
-17.5882
-6.16658
14.6763
-6.92109
11.9616
-2.96031
1.96243
10.6494
-0.121366
16.2679
-4.79679
4.68966
15.5234
15.4208
1.63806
12.2859
0.878473
16.5436
-1.89872
16.7331
-8.00648
-7.1234
3.44594
11.6839
-9.13827
-2.19335
3.32514
0.758007
-10.3373
0.441023
11.2727
-11.776
1.26122
6.01253
-9.51081
1.30493
0.230617
3.91872
5.0682
10.6848
-9.74052
-5.99674
14.5109
-6.02895
-2.33624
-1.14562
3.08523
-7.92592
-1.18826
2.57005
-9.82211
-1.15376
-8.05214
-4.57389
2.93928
-4.36214
-4.24572
3.18693
9.15652
-8.09773
2.92669
-3.90353
-3.26889
-2.07026
5.45331
-5.71928
-7.72049
3.37722
-5.94756
-11.9549
25.2398
-6.80066
-6.48431
4.2492
-16.0778
-0.126249
5.25368
21.0693
-22.0738
-1.18332
28.5387
-5.42539
-21.93
6.21761
14.9438
-33.4033
12.2419
20.6118
-16.5415
4.21797
19.3024
1.71945
19.6402
5.64709
-2.01109
18.1733
3.47801
16.905
1.69575
14.5972
20.1591
-7.68325
-7.5035
33.3601
23.8189
27.3029
-15.504
7.18542
-1.88579
-10.2882
4.9886
-10.6401
16.212
1.61348
-12.1287
4.28796
-1.88403
9.72479
-4.90284
-12.6926
19.2808
-1.68543
14.658
-6.23217
-13.3287
-1.28615
3.81543
-11.0232
4.19912
4.93829
18.8081
-19.003
-10.0933
-10.0004
18.1684
-7.30714
4.92179
1.0992
-2.42867
-11.1106
-5.42281
-0.678601
-3.98207
-5.82731
-9.19365
-15.8496
8.13766
-2.28852
-7.67025
-12.1614
-4.57627
-6.67384
-2.5306
-10.7624
5.62272
-9.53553
4.0563
0.269867
1.7385
-7.15693
3.70601
7.50722
0.919384
0.94251
4.58839
-0.156783
-1.66286
3.52924
1.32902
-3.27168
-0.940062
7.91776
-3.66293
1.31063
8.0498
-4.70319
-1.01133
-2.33528
2.88823
7.58394
-2.42237
-1.53674
6.8542
-1.25064
5.47741
-1.06644
-11.934
-2.65856
15.659
-8.72054
10.0758
-2.42169
-14.314
6.56563
-2.04439
9.79279
-1.49273
-0.0334213
-7.19439
-2.20859
-11.2181
-10.1811
10.1319
-2.60938
-12.2242
-1.9052
12.1134
2.01598
-6.05771
-20.4805
-3.83938
0.223893
-6.64295
5.72277
10.987
-10.0668
-19.8579
-0.712211
13.9272
-6.76641
7.73147
-15.2403
14.2753
7.03466
-19.8588
-12.3705
-3.21599
11.7471
-5.67614
-6.45028
-11.012
0.382512
13.0545
-3.67719
-9.75983
16.6965
-4.46165
-11.8523
-5.19177
15.4428
2.80347
15.3457
-3.84094
-2.80514
11.1776
-12.8341
2.29348
7.99019
-13.0888
-0.594928
-12.0174
1.96154
10.6508
-7.00163
0.0107408
6.39597
-2.04062
6.2166
6.93267
6.3724
7.03147
15.344
8.10259
-9.4863
2.26826
-6.29545
-5.35915
7.86392
4.52671
-13.1753
-2.54168
10.3578
-2.80447
22.0174
0.218584
-4.93034
-17.3056
13.8103
-1.3375
9.54453
5.13362
-11.3215
19.9982
-3.83396
17.452
-8.06039
-5.55764
20.9567
-12.0734
-12.7172
-22.3908
29.067
-6.45764
-5.38308
-13.0696
-3.93809
-7.82853
-1.629
14.5911
-13.3562
4.19014
-8.56478
9.60141
16.4154
5.81185
6.58005
-15.9988
8.45452
-5.35976
-18.9478
8.30871
2.27604
-19.7093
5.68994
-11.4743
0.505107
17.2405
-17.0474
6.81374
10.7388
-16.7406
14.7862
29.3178
-25.1608
-21.7524
17.5954
-1.70186
17.0105
14.0091
-3.85285
26.2708
-9.72152
-12.6964
12.0555
-25.8824
29.81
-15.9831
-17.0449
3.93956
13.8948
-31.9645
16.3678
6.18844
8.77025
-40.8411
-19.9725
9.11599
-15.1509
25.1928
0.155493
12.3101
15.8658
-28.3314
-13.5025
11.348
28.4759
-26.6173
6.91167
-25.5793
10.584
-10.6059
50.8642
-34.5298
-1.91617
-14.4183
24.9562
35.5023
-9.59427
-20.5074
31.8514
-22.7625
11.4185
-41.157
-13.8802
50.3948
6.4128
-3.52604
-33.7934
-3.83757
12.9857
6.30941
-42.0576
-19.1514
-22.5095
27.463
14.1978
-17.4556
5.39186
-7.08765
24.1494
-30.468
26.67
-20.3515
28.0419
9.09324
-5.67685
-27.5938
29.7446
0.0350222
-36.5682
6.06526
-24.8348
-0.983923
3.30925
-24.5228
-17.7676
21.6086
4.07746
31.4695
18.181
-30.1646
3.76194
9.04056
-1.48809
-11.3144
-11.7445
11.3078
4.19861
5.67179
-12.7245
-4.69176
-8.60762
14.5067
1.99125
-7.89033
11.1418
-16.2833
-3.46615
-4.31637
-2.34231
17.9665
-3.60476
8.32895
-1.04238
5.41504
10.134
6.49467
11.1769
-3.51384
14.2496
-6.40491
-1.17198
3.34118
4.23572
-4.56358
0.919855
-2.76119
2.03019
-1.4726
-5.12118
0.714597
0.143609
-0.365134
2.89173
-1.812
2.8206
-1.18454
-2.00119
-1.29892
1.2473
2.94335
1.73587
-0.214185
-4.77316
1.87039
6.24395
-2.66638
-1.18692
0.50965
1.84405
-3.82629
2.69183
-1.4284
0.318449
-1.58188
0.686822
0.79245
1.21256
1.67381
-2.3487
-1.78286
1.25889
1.21079
-1.53746
1.24917
1.74559
1.50863
-2.33097
-3.8
2.34966
2.2428
-1.97292
4.75196
-0.531923
-9.80786
-10.2126
23.9884
-3.96804
-15.1017
-18.0921
23.3859
5.6283
7.95231
-0.254851
-13.3258
-0.364282
-9.10913
6.46004
-8.72029
-12.4016
1.92671
25.042
-14.5671
-0.861557
12.4484
-6.15544
16.2311
-10.4399
8.48047
-14.8908
8.06367
-16.5367
7.61151
-6.00485
-7.39131
15.3229
-9.24369
11.3025
7.92509
5.29309
3.01288
-4.30475
-5.77195
7.17435
-16.5953
0.177301
7.70813
-12.4196
5.64644
-3.75352
-1.9724
0.0794794
-1.29091
7.99621
-1.05886
-0.992127
2.33183
-5.64802
4.30831
1.18473
-4.30428
2.12743
7.05705
-7.85669
-2.95388
8.09798
3.70585
-2.36024
-4.53155
3.18594
2.17833
2.71225
-0.858293
-1.08932
-3.70041
-3.38095
-1.78163
-5.99055
0.249369
12.5673
8.77032
-4.7207
-16.6169
-1.78222
6.33004
8.01946
3.68313
3.30497
9.44993
-1.59761
-4.16918
2.84706
5.94931
-13.5171
-14.6976
3.8994
20.2481
-1.6622
-0.358666
-12.6767
5.07877
-8.8848
6.65309
9.84763
2.77094
-6.66926
4.26149
11.9162
11.1235
-10.9816
-1.80409
19.2844
-3.13186
17.5642
14.447
-0.0660536
-31.9452
-0.350137
24.698
-6.78367
-38.4634
10.3606
14.3647
13.7381
2.92365
-13.877
-27.51
39.6454
-10.8357
-25.8861
26.9983
23.0078
40.5178
-36.9065
2.21755
26.2668
12.0335
-11.0197
15.0789
-4.4094
8.81967
-19.9054
-26.7773
19.913
9.08183
12.7854
-14.8647
16.7278
-21.7851
12.6275
40.6376
11.3415
10.6606
-5.27439
19.281
6.42526
-16.3964
8.29497
28.0145
-8.92163
5.31062
-12.1742
10.6619
20.7933
-3.44564
1.93209
2.71166
31.5843
3.46332
6.87301
-26.2001
15.8638
10.3968
25.8023
-32.7358
-0.567232
20.1952
-12.7549
30.8852
-21.0556
35.5333
-16.3361
6.60506
46.2787
3.19407
-20.7932
-28.6797
21.2128
18.5607
-19.5784
23.8586
30.7437
-23.7171
45.371
-0.299627
-1.4978
32.1965
15.58
-45.3159
14.6615
29.1566
-18.5124
17.2396
-44.0432
33.3631
-11.6083
-2.58332
14.4927
18.8343
19.1776
23.6102
11.3501
-3.44389
25.4569
10.4381
20.0895
-18.5816
30.2354
3.00771
18.4164
-1.39543
14.3275
0.323814
15.901
-3.92099
-12.3038
-4.63712
19.9899
-15.029
-3.49942
20.7371
-21.8748
12.5395
0.699986
-16.7389
6.0077
12.6694
-2.77611
20.8545
5.1431
-4.36936
13.4143
3.49461
18.0678
-1.70006
12.0716
-15.2926
-16.8752
-13.1566
10.0987
19.9331
2.79825
-18.6578
-1.01567
15.6493
3.59512
-0.723012
12.7772
14.1357
0.990774
5.72805
15.6235
-22.2098
-1.02681
3.49379
0.624589
13.0693
2.86369
10.549
12.8601
6.19846
9.60626
2.78119
-6.54311
10.0314
15.9233
-4.98101
7.93195
-7.99701
5.04607
-0.114584
-3.67375
-1.19268
-9.50956
8.36554
-7.4709
8.61492
-3.00183
-11.8677
5.35994
-6.02345
10.1403
4.24871
-4.68843
-1.44961
-6.20578
1.96686
-7.53128
11.7702
4.65388
-0.719385
-2.33764
8.95838
-6.50246
12.0968
-12.2407
5.38823
-1.14455
-9.26757
-6.64687
-9.01857
1.32832
6.52872
-0.522957
-0.738251
-5.26751
16.6578
-17.6604
-5.60187
4.48764
-0.256813
-5.86802
8.33824
-6.6239
-7.29258
5.57824
3.70958
1.87064
2.75802
-8.78901
-10.5673
6.88868
12.4676
1.72402
4.33479
-12.6827
7.32205
-14.387
-9.43963
6.04103
-6.34966
9.74826
5.52063
-7.63821
-7.46306
3.13164
1.85123
2.48019
8.9131
-12.0414
6.83708
4.89178
-2.81577
4.822
5.14673
1.80048
5.57138
-8.73605
10.0402
3.51784
-0.134687
-5.14158
-3.11414
16.4123
-8.1566
-26.5948
1.10233
14.0045
11.488
-1.62157
-26.4449
1.47166
-16.0703
-2.59814
13.5269
8.11626
-0.958865
-23.2277
-20.6145
10.009
11.7078
0.190175
-22.4263
-5.36601
12.2609
-17.9748
10.0107
-19.2606
1.47596
17.9503
2.34421
0.675438
-20.9699
7.76635
11.4976
-1.31365
-6.70257
-4.60352
5.92071
5.38538
-13.4383
-8.32912
15.0649
-12.7963
13.3076
7.25505
1.89518
-12.3472
-13.0847
11.144
2.04166
-14.4509
-4.63344
18.4649
-0.523884
-3.34824
-17.6659
16.4106
-23.9022
3.14462
17.4094
-2.10746
-25.3348
3.54
-20.3567
0.583289
-16.3603
14.8715
3.36458
-21.6796
0.454365
-22.4245
-14.0108
-17.5675
4.47724
13.43
-0.339721
-8.22855
5.0694
-14.4083
-1.75497
6.67211
4.92587
-9.84301
12.645
6.01475
-20.4147
1.40335
11.0783
0.163341
7.191
0.884463
19.111
9.19035
-15.6805
-12.6209
12.1124
7.88714
-0.888481
-17.0261
11.1292
18.0092
-5.29817
-2.53756
9.34999
-12.6527
11.2922
2.535
7.05089
-4.16198
2.18048
16.0806
4.40026
-15.2323
5.56654
-10.5305
4.385
17.2747
-4.7503
13.2507
5.23249
9.53609
16.2429
-9.69836
27.1718
5.10556
10.019
0.675481
-15.8
10.224
-11.6917
6.5733
-4.68536
1.10891
13.8004
-2.84017
8.17377
3.44742
-0.323819
-14.8153
-8.66039
-3.39138
13.1607
8.3674
-4.06931
2.66812
-6.96621
5.64899
7.95593
-4.35184
-9.25307
11.4329
2.74884
-8.53275
0.735289
12.0449
-4.82426
13.1387
-4.03605
-7.58215
2.36918
2.56345
6.02928
-10.4535
9.62554
-6.63214
8.22356
-1.07554
6.88147
1.28878
-5.41073
-2.75951
2.20195
2.87397
1.80555
-3.88383
2.50533
3.58045
-1.0307
-1.56435
3.96526
7.80421
-8.89551
-2.14535
8.91293
-4.26224
-3.42715
9.78702
-3.21535
-3.14452
2.57002
-5.31735
-0.679822
3.13602
-2.03345
-2.13328
-5.84278
6.83345
3.71927
2.13654
3.93122
-6.66584
4.54233
-6.12926
-6.86236
-4.87219
4.50945
7.22509
-9.05307
0.879156
1.31155
-2.42803
-2.97514
0.530978
6.64253
-8.4719
-0.598651
5.77047
-8.60107
9.47312
-6.5511
16.831
-4.3182
-7.71
7.01814
-8.72726
2.58828
-5.47502
5.94206
-8.25241
0.0266886
-0.246183
-4.22071
-9.85538
-8.9984
0.270554
0.000577285
13.3811
-0.461173
-11.2681
-1.6518
16.4137
15.7441
-19.8302
-12.3276
3.98685
10.9083
1.51852
12.0879
5.28005
14.3537
3.0535
-1.66314
13.0485
12.2135
23.9968
-12.2065
-3.56521
-8.22511
0.480201
-1.79385
25.3105
-15.0804
-0.609148
16.1698
-15.199
22.6617
-14.6704
-11.5565
-1.02131
21.8891
23.1868
-17.0416
-6.55921
0.41402
0.585736
21.5798
10.813
-13.4339
-14.4207
15.5629
-1.69648
-1.01623
13.4555
-6.47172
-14.7579
15.1325
13.3093
-0.340708
2.86953
-15.8381
1.71591
14.1224
-2.52907
21.8263
16.6094
-23.142
-15.2937
-3.21587
10.9447
14.0975
4.96239
8.43112
11.8562
2.3288
-14.5257
-1.63463
15.2067
12.1168
12.9504
3.05476
-23.3273
-19.4232
6.90973
11.4176
1.09586
-12.6665
-1.04892
-5.70774
1.06835
17.4642
-6.41577
15.134
-0.0470989
-12.0321
10.1485
9.94785
2.81749
-13.1552
-18.7906
4.98984
20.7105
-12.9678
-6.87173
16.2067
-10.1974
-1.7344
1.77635
-1.52738
1.48542
1.53424
-3.3884
0.119763
2.28486
-1.90514
1.15451
0.497402
3.56381
-2.47018
0.160607
0.782196
-2.80281
-3.05576
1.45016
0.676546
-1.9661
1.37349
3.09939
-3.02272
-1.78774
3.65863
-0.542236
-0.466373
-1.54669
2.5553
2.44713
-0.943009
-2.04635
1.57244
-0.340285
1.21498
1.15527
-1.9839
-1.0765
0.939967
0.791331
-3.71824
-2.47786
-10.3271
14.6926
-15.5471
11.1816
7.81131
-0.145161
-17.9933
0.915279
-3.17174
10.0678
-4.51962
20.1275
-24.8397
-1.13107
5.34584
20.6249
-13.7535
-1.51284
-9.57333
1.61929
-5.40001
-11.7664
-3.18395
-15.726
14.3904
-18.5366
14.2216
-12.0992
-20.191
18.2135
-11.2578
-8.46859
20.3876
-9.96182
-4.14491
-8.38093
-0.726551
-2.15028
2.98976
-17.1192
5.74854
-19.0712
4.7355
7.93846
-12.674
10.5364
-9.35341
3.55253
1.87676
-2.82354
8.88524
-1.11418
13.5273
1.76069
-14.4346
-8.02732
0.4346
1.38499
-18.1811
1.81124
14.9849
-16.202
2.8868
14.7001
-21.9986
19.8814
1.78191
0.335373
-2.27583
0.413724
-20.1365
-3.12321
4.82343
-20.0546
0.729447
-12.0675
13.8402
-0.734269
1.61291
-8.90596
1.4998
-16.6687
-14.64
13.6277
14.2657
-15.0417
1.40761
-1.5067
-18.1342
-11.9613
1.09413
7.20285
1.51289
-9.80986
2.40968
0.182707
-13.4762
10.8838
16.6886
9.35374
-18.9318
-7.11052
-9.44815
14.6668
11.4699
-6.83643
8.90066
-2.68933
0.625108
-9.07928
2.53056
-0.287709
15.1316
2.70395
-15.4259
-6.5
12.5523
0.724391
-4.52044
-9.89256
10.3119
-2.87123
2.4519
2.40556
-12.1154
-3.23707
8.37969
4.21112
1.52449
-18.0507
-7.19927
8.16896
-9.70374
1.11186
-3.88143
12.4733
-7.88238
-24.5152
22.6939
2.39263
21.4054
-13.6015
-10.1965
-12.4347
2.41674
4.19533
5.82262
-12.989
-15.5589
16.1132
-22.0052
1.13386
-7.03451
10.5461
16.0586
-19.5703
-3.58374
-2.33891
-7.12007
-9.05533
18.568
-8.66103
-10.6728
12.2138
-7.43208
1.1878
0.956758
0.534052
-12.0308
2.31473
-8.55701
-10.9059
-7.40139
6.1997
-7.54991
8.7516
-10.7934
6.40451
-3.01255
0.162342
-10.8435
12.2591
-1.57794
-9.57394
-1.05708
-6.13568
-3.57971
15.9151
-6.16572
6.43456
0.288613
-15.9806
9.52625
-21.8921
8.56721
13.6136
-0.852981
6.8707
-15.5917
7.35586
-19.0523
3.8301
-12.94
-6.64522
-11.4168
-0.289561
4.99872
-10.3952
15.3827
17.2351
-16.5245
6.55031
45.8435
-27.542
-1.8765
-16.425
1.1123
21.2225
23.5087
-32.6184
-2.48203
22.3457
12.7547
-19.0609
-41.0994
-24.5751
12.3956
13.2918
-16.5436
-9.90795
-26.0477
13.3164
10.2492
-11.9631
8.38135
-22.4659
0.285692
-31.3097
8.2266
35.3415
9.95767
-14.0842
16.5221
-31.2825
28.0396
16.5592
-5.69973
-17.2014
15.4149
9.63485
-24.7641
24.6821
-6.49783
13.6357
-14.7645
-2.29644
1.848
18.069
-14.1339
1.84935
13.9232
-6.8901
3.335
-14.7491
18.3042
15.7298
-18.1631
-1.12352
4.74919
-7.09788
18.0785
-11.2523
-0.324007
-10.8692
22.4456
-1.68971
-16.4527
-2.87085
22.2638
-5.57736
0.601475
-13.1872
-9.92094
19.2073
-9.61034
3.33642
-14.9471
-19.2596
17.0186
2.45896
4.1819
15.6884
-22.3292
7.64326
24.3601
-29.5444
13.1293
-9.19285
10.2133
16.9623
3.33605
-1.09109
21.7347
7.64438
6.58144
-26.0712
10.9293
-16.4115
-6.15536
9.09563
8.23812
1.38203
18.5247
-8.97745
10.2171
9.72286
-13.3586
-6.54398
18.1432
8.56335
3.80603
11.4429
7.06848
-9.94804
-0.874818
9.50845
1.94302
2.229
-15.2461
11.0741
15.3418
-6.65102
6.92187
-15.6126
-4.52162
-0.973665
20.837
-12.8169
3.49621
-2.10053
11.4212
4.11627
-14.9901
-4.41391
14.9577
-15.0654
-9.96074
-3.8255
12.8126
-16.6303
0.0185019
21.4178
-0.919157
-10.0187
-10.48
2.16633
2.18607
17.0654
17.74
-9.25231
-9.4068
4.49157
15.4147
12.9666
4.00824
-12.8586
-0.167405
-0.464464
-12.7302
17.2029
-4.20276
-12.2622
16.0005
19.4391
-11.7584
-17.6994
17.2113
13.9315
-13.2654
-13.7321
14.0175
9.96638
-19.6305
-4.3534
-7.16914
12.0349
9.15176
6.30772
-3.51047
-15.5063
4.02729
12.159
-0.679982
-17.2629
-11.8285
13.5851
2.23378
-14.4251
18.499
-4.40957
-11.5947
18.2381
3.65653
12.4056
14.1428
-13.0108
-5.54158
19.656
-9.8254
4.31223
4.37348
20.759
-5.47648
22.6969
-14.6669
-9.56838
-2.13794
-3.93323
15.6395
-14.6562
14.1175
-9.02966
9.26197
-6.60246
-2.65952
3.12957
-0.751023
13.1346
-15.5132
0.0190895
12.3724
8.67891
-4.34778
-6.46906
1.48031
6.23757
-2.32861
-5.38926
8.5152
-7.03489
1.91274
2.13462
-12.2451
9.35945
-6.44968
8.60339
-7.97333
-16.7136
18.2372
-6.06058
-17.532
-14.5971
15.4156
-14.6318
-8.96075
-5.16624
-3.07158
-6.35931
-13.5605
-6.63777
1.61748
10.894
1.39129
-13.9028
-16.4627
14.3872
3.69299
0.49322
-0.60987
-16.3461
-1.39173
-0.139244
15.9182
-1.32462
10.8269
5.65132
-21.3125
17.3494
-1.68824
12.9635
-11.887
4.57482
15.5126
-2.73647
-16.2979
3.52176
16.2279
-0.715303
-16.7211
-1.88192
18.4638
-0.723383
12.3623
5.31862
-1.42569
-25.2054
-8.8288
2.26042
18.2782
-1.29029
0.361516
1.16989
16.3849
15.0841
-19.2462
-1.05976
15.4286
15.9882
-16.7002
-19.0159
-17.4365
25.384
11.0683
-5.27414
-28.342
14.6003
8.82153
-2.71902
-23.539
5.61654
31.804
-12.0365
-27.2747
-9.48091
16.189
20.5666
18.9499
-31.5728
4.94419
7.67867
-5.4325
29.9989
-28.0751
-4.74206
5.54246
-23.7091
0.957837
0.409426
-19.6353
-4.48323
32.8134
-26.5954
-5.80864
23.0344
14.7232
-11.9556
29.5575
24.6818
-34.7817
-1.85568
4.97333
-21.0899
-3.51869
-22.9413
1.31928
3.74987
-6.49219
-4.25985
7.00217
-2.7255
1.95219
4.52318
-1.50158
0.0965313
-5.08713
7.21526
-0.0669239
-8.64992
7.43467
-6.68681
-8.73789
7.99003
-2.86773
4.63228
5.67013
1.62203
1.37695
-8.13068
-4.57482
6.43434
0.555532
-20.7891
13.7993
-5.73709
5.62278
6.54865
10.5641
-0.687098
4.35372
-14.2307
14.0535
6.75216
-20.2501
-12.4005
12.7265
16.7654
-17.0914
-1.31352
-11.087
-12.0133
9.58484
12.9926
-13.3269
9.6804
3.68597
13.5686
-8.87493
2.05849
-4.39593
26.7073
18.8531
0.770718
-2.55009
-13.7608
15.5402
-1.80289
-12.0447
14.6183
2.24117
1.37633
-17.2474
13.6299
-14.4191
14.8574
-14.4093
13.2355
6.05343
-11.6771
-8.13718
-5.99127
-4.04139
-15.6154
5.23764
7.64887
-4.01103
2.21178
-5.84963
-17.8532
11.0928
-2.26972
-19.5946
-10.0327
-1.54649
-13.4891
-2.75525
-14.4066
1.29406
-15.2409
-11.4939
13.1913
-13.6588
5.3944
-4.92691
-6.93691
7.25053
12.8777
8.5047
-2.50142
-19.662
1.5678
9.45558
4.17752
-8.23871
19.496
-2.78987
-7.69442
9.26222
-11.6168
1.58315
12.0343
-2.00062
-5.42853
-13.8827
-17.3015
9.37155
9.97878
-14.1445
-14.3436
18.5093
-0.301868
10.2807
-0.573896
10.5361
1.54084
-11.503
2.13261
-16.851
9.1799
9.09079
-7.73464
8.87804
-0.773234
11.3855
-9.07143
15.0517
-13.6923
0.323174
13.0055
-13.7457
0.416963
4.14588
-6.70136
17.6072
-0.715981
-12.6398
12.5026
0.853151
8.16205
-3.55191
0.00288769
16.4181
-12.2818
0.00956368
-0.247847
17.2527
-0.58672
0.61745
7.86778
12.8722
-4.44822
-18.2497
17.037
-14.0587
15.2714
-11.2161
-2.95445
-4.07917
4.87657
-1.76259
13.9231
-25.7319
1.87187
9.80128
-21.8597
-15.0883
-11.1283
17.5292
-1.52439
17.7744
-14.1524
-6.57637
11.4797
4.53207
-19.0359
9.77947
30.3214
-8.17652
-31.871
9.7261
26.5069
-15.2213
18.386
4.37493
-6.91611
-15.8448
12.3132
5.01257
1.06019
1.83554
-31.8718
-13.0789
13.4267
11.9655
-6.77006
-1.93396
15.3124
-20.393
6.17253
12.2994
11.0052
-11.7079
-11.5968
-5.92082
14.4147
3.80551
-21.3515
4.03934
14.4121
2.90007
-9.93498
-0.411264
18.5308
-12.5461
1.99334
-7.97799
23.6363
-7.12588
2.02039
11.4103
0.267278
-23.3854
8.33039
-2.84092
13.5275
4.92664
11.2635
-22.3873
11.3911
6.77231
-8.0549
-17.5672
-16.6328
20.9726
13.2274
1.55163
-10.7885
-8.30883
0.0470082
35.1833
-22.2491
-12.9812
32.5181
-11.9621
-20.509
5.21139
15.7516
14.2203
18.1456
19.5839
-21.5165
-6.39715
5.66452
11.2048
13.0259
-8.47911
-11.0235
2.26992
12.7429
-3.98931
-11.5263
-1.87637
2.37922
16.685
-4.69512
-12.8936
0.903738
11.386
-6.22732
-15.7563
17.2578
6.0976
-7.59912
6.77056
-20.646
-1.88079
-1.96568
15.4404
-4.97114
21.1511
-21.0294
2.33821
16.5277