/*--------------------------------*- C++ -*----------------------------------*\
  =========                 |
  \\      /  F ield         | OpenFOAM: The Open Source CFD Toolbox
   \\    /   O peration     | Website:  https://openfoam.org
    \\  /    A nd           | Version:  10
     \\/     M anipulation  |
\*---------------------------------------------------------------------------*/
FoamFile
{
    format      ascii;
    class       volVectorField;
    location    "5";
    object      U;
}
// * * * * * * * * * * * * * * * * * * * * * * * * * * * * * * * * * * * * * //

dimensions      [0 1 -1 0 0 0 0];

internalField   nonuniform List<vector> 
75457
(
(5.00231 -0.38762 -0.803886)
(5.11932 -1.30762 -1.20229)
(7.38923 -0.0362555 -0.603326)
(9.67884 -0.369495 -1.05032)
(4.35504 0.952337 -0.0166865)
(4.58099 1.122 -0.123514)
(5.45028 -0.657389 -0.690988)
(5.18522 0.440547 -1.093)
(10.8294 -0.660545 -1.13163)
(10.6716 -0.43205 -0.928212)
(10.9206 -0.252007 -0.956421)
(5.01643 0.273668 0.232769)
(5.16445 0.0841814 -0.167597)
(9.81722 -0.236485 -0.383485)
(11.6805 -0.625441 -0.368322)
(11.7708 -0.58926 -0.314964)
(11.9838 -0.558215 -0.479696)
(11.7971 -0.610711 -0.574845)
(11.8524 -0.61108 -0.349031)
(11.9652 -0.506701 -0.408325)
(11.8089 -0.569496 -0.520596)
(11.969 -0.589077 -0.373632)
(11.7925 -0.639895 -0.362491)
(11.8048 -0.665142 -0.398646)
(11.9672 -0.616718 -0.367102)
(11.6288 -0.713668 -0.565314)
(11.5467 -0.748707 -0.593056)
(10.6539 -0.889218 0.733431)
(10.4689 -0.795882 0.823986)
(10.6241 -0.871551 0.715063)
(10.7099 -0.809516 0.656098)
(10.4048 -0.79053 0.775735)
(10.403 -0.765468 0.775712)
(10.8906 -0.707176 0.619376)
(10.8683 -0.70188 0.603127)
(11.0188 -0.602101 0.771756)
(10.9475 -0.715185 0.656975)
(10.3606 -0.766339 0.829112)
(10.4545 -0.752356 0.806994)
(10.8756 -0.644889 0.604622)
(10.9018 -0.636551 0.616045)
(10.8795 -0.651458 0.628867)
(10.9864 -0.648325 0.770822)
(12.4899 0.467923 0.52975)
(12.2957 0.488656 0.45385)
(12.6315 0.450042 0.526572)
(12.6342 0.420697 0.552016)
(12.4766 0.458794 0.516961)
(11.6765 0.115884 0.107805)
(11.9349 0.153944 0.184518)
(11.9665 0.152385 0.170633)
(11.7625 0.124808 0.153207)
(11.458 0.13038 0.0361394)
(11.854 0.147516 0.161001)
(11.9877 0.158797 0.21717)
(12.0026 0.157219 0.192821)
(11.5821 0.151087 0.106274)
(11.6101 0.149904 0.0936369)
(11.6552 0.11555 0.0655831)
(11.4332 0.12678 0.0254425)
(11.5222 0.142665 0.0778881)
(11.7612 0.120173 0.115034)
(9.95806 0.056468 -0.313974)
(9.96263 0.0668814 -0.339535)
(10.1486 0.0876153 -0.266848)
(9.94618 0.0614902 -0.306397)
(9.96567 0.0558238 -0.286819)
(9.91569 0.034728 -0.282504)
(9.93602 0.0415772 -0.219739)
(9.82889 0.0275203 -0.244043)
(9.84258 0.00855634 -0.241035)
(9.78869 0.00139994 -0.253637)
(9.96944 0.0483003 -0.228299)
(10.1389 0.0893962 -0.266623)
(9.94586 0.0484345 -0.206691)
(10.1208 0.0795781 -0.234384)
(10.1086 0.0715072 -0.222147)
(0.0999506 0.30177 0.218556)
(-1.07605 0.777426 -0.915289)
(-0.506929 0.922847 -0.884811)
(1.16893 0.632252 0.481764)
(-1.38776 0.73218 -0.297562)
(0.216777 -0.0703226 -0.015668)
(-0.272391 0.00910385 -0.585058)
(-0.150584 1.21695 -0.532243)
(-0.849706 1.17516 -0.849586)
(0.0695529 0.781445 -0.782232)
(0.139672 0.870442 -0.563099)
(1.8618 0.447403 -0.101576)
(2.02657 0.74648 0.230371)
(0.48168 0.342371 -0.0129824)
(-0.207834 0.38643 -0.408272)
(0.44646 0.998621 0.418323)
(-0.53521 0.791402 -0.0406525)
(12.3468 -0.267717 -0.0322455)
(12.7166 -0.272317 -0.0472627)
(12.715 -0.277415 -0.0469321)
(12.7409 -0.274092 -0.0397018)
(12.1349 -0.266752 -0.0203865)
(12.382 -0.265821 -0.0360511)
(12.3935 -0.270889 -0.0089088)
(12.2545 -0.254862 -0.0254253)
(10.017 -0.00996705 -0.020089)
(10.0272 -0.00927019 -0.017039)
(10.0207 -0.0149234 -0.0223801)
(10.0209 -0.0193687 -0.0156958)
(10.0119 -0.0174465 -0.00682769)
(10.0234 -0.0173375 -0.00603649)
(9.85494 0.000642581 -0.0205971)
(9.9335 -0.0144083 -0.0151341)
(9.94499 -0.0181775 -0.0109899)
(9.90176 -0.0187286 -0.00166917)
(9.87088 -0.0259357 -0.0231159)
(10.7415 0.112607 0.066399)
(10.7784 0.13591 0.185097)
(10.3787 0.0960682 0.111445)
(10.3678 0.0312339 0.0376792)
(10.7567 0.0851008 0.20237)
(10.6309 0.149018 0.114709)
(10.5317 0.198543 -0.0208809)
(10.8447 0.104853 0.265015)
(10.8371 0.129265 0.273709)
(10.7347 0.127432 0.267594)
(10.5387 0.151273 0.125715)
(10.4411 0.124537 0.0885915)
(10.4861 0.121746 0.140011)
(10.5383 0.163635 0.05515)
(10.4831 0.0921198 0.148837)
(10.5217 0.0569032 0.0814211)
(10.6237 0.11574 0.22605)
(10.7172 0.11423 0.243239)
(11.2798 0.00582107 0.354961)
(11.3515 0.0759688 0.308509)
(11.3517 0.0528205 0.337223)
(11.2822 0.0322828 0.305803)
(11.2753 0.0184529 0.296487)
(11.2716 0.0773436 0.314075)
(11.2018 0.0367296 0.294869)
(11.2088 0.0269214 0.336766)
(11.1554 -0.00752117 0.311181)
(11.8792 0.0291966 0.180746)
(11.8841 0.0159801 0.200499)
(11.7767 0.0109122 0.232751)
(11.887 0.0246267 0.152293)
(11.9186 0.0138838 0.171406)
(11.6161 0.0220839 0.116176)
(11.7896 0.00205905 0.241062)
(11.8202 -0.00806821 0.206266)
(12.676 0.0129363 0.00630882)
(12.769 0.0269324 0.0349878)
(12.542 -0.005957 -0.0527806)
(12.5658 0.0609781 0.0180794)
(12.9725 0.0158554 0.125797)
(12.926 0.0548501 0.16671)
(12.746 0.0228179 0.0753783)
(12.5853 0.0513727 0.0190312)
(12.5582 0.0389999 0.0633838)
(12.4921 0.0381133 -0.00187789)
(12.9004 0.0486085 0.154436)
(12.5726 0.0597223 0.0266353)
(12.588 0.00673962 -0.00791404)
(12.889 0.0448455 0.193137)
(12.5093 0.0486365 0.0596549)
(11.5099 1.07788 0.890538)
(11.2667 1.23896 0.879049)
(11.179 1.30234 0.840266)
(11.3671 1.21142 0.791229)
(11.2342 1.10661 0.751132)
(11.7049 0.940576 0.858163)
(11.5443 0.752545 0.552032)
(11.4215 0.877683 0.679326)
(11.549 1.26889 1.01713)
(11.4323 0.955256 0.654337)
(11.5358 1.07033 0.692228)
(11.7983 1.14015 0.896385)
(11.626 0.929851 0.599231)
(12.7999 -0.0811986 -0.0677321)
(12.9198 -0.0464931 -0.0842694)
(12.8165 -0.0220895 -0.0396294)
(12.6372 -0.0501992 -0.0113305)
(12.6662 -0.0306881 0.00089453)
(12.5291 -0.0356466 -0.0353507)
(12.7757 -0.0825416 -0.0335155)
(12.7186 -0.0910708 -0.0140489)
(12.5763 -0.0974028 -0.0026421)
(12.9142 -0.0500416 -0.0926565)
(12.6584 -0.0506915 -0.0279499)
(12.8058 -0.0725529 -0.0517676)
(12.5599 -0.0462728 -0.0123117)
(12.5126 -0.0391957 0.00387141)
(10.4622 -0.0721909 -0.635619)
(9.95458 -0.216938 -0.790123)
(9.81087 -0.0372531 -0.894643)
(9.20413 -0.11846 -0.684719)
(8.71204 -0.162141 -0.77064)
(9.03356 -0.0970278 -0.741051)
(11.7956 0.367647 -0.599501)
(11.6396 0.231253 -0.454912)
(11.7173 0.206668 -0.424038)
(11.803 0.242758 -0.459584)
(11.9169 0.264796 -0.45792)
(11.5531 0.185253 -0.181321)
(11.4047 0.300585 -0.136284)
(11.4499 0.293235 -0.107432)
(11.5749 0.321261 -0.222184)
(11.8124 0.318576 -0.225587)
(11.6579 0.262952 -0.0525725)
(11.77 -0.0024963 -0.108303)
(11.8123 -0.0225711 -0.0436022)
(11.8497 -0.0292308 -0.0379833)
(12.0648 -0.0549276 -0.0702742)
(12.0103 -0.00179174 -0.133879)
(11.6685 -0.0198894 -0.0612979)
(11.6804 0.0471455 -0.0934984)
(11.9837 -0.00106442 -0.156502)
(11.8593 -0.00325083 -0.101593)
(11.7392 -0.0395522 -0.0247195)
(11.9903 0.00251948 -0.152355)
(11.6401 0.0169771 -0.104315)
(11.5966 -0.00352256 -0.0177521)
(11.6112 -0.00359244 -0.0502469)
(11.7576 0.37268 -0.0268324)
(11.8239 0.388515 0.0103377)
(11.6579 0.3684 -0.0245938)
(11.9807 0.341088 -0.0024871)
(11.85 0.33348 0.0371506)
(11.7507 0.403317 -0.0310504)
(11.8394 0.402531 -0.00619051)
(11.8045 0.44001 -0.0498422)
(11.7009 0.428108 -0.0181386)
(12.0938 0.400071 -0.0737253)
(12.127 0.373932 -0.0615655)
(11.8587 0.401888 -0.0172765)
(11.8596 0.414386 -0.0357272)
(11.9105 0.398068 -0.00187639)
(12.1511 -0.00425301 -0.356956)
(11.9768 -0.00785013 -0.403068)
(12.2652 -0.0720437 -0.385494)
(12.1708 -0.0511301 -0.309575)
(12.201 -0.0634837 -0.298573)
(12.3109 -0.0750485 -0.398604)
(12.0259 -0.00976591 -0.302482)
(11.9294 0.0257001 -0.355868)
(11.975 -0.0178232 -0.410632)
(11.8258 -0.0106987 -0.381279)
(12.0228 -0.0396508 -0.426923)
(11.9427 -0.0201197 -0.294382)
(11.968 -0.0133913 -0.268209)
(11.921 -0.00764114 -0.421101)
(11.8407 -0.00515307 -0.379052)
(11.8962 -0.00641194 -0.284767)
(11.926 0.0206715 -0.361905)
(10.4235 -0.101373 0.0644118)
(10.117 0.0300518 -0.0354567)
(10.2389 0.0188633 -0.0638597)
(10.199 0.039202 -0.0271611)
(10.3978 -0.15444 0.0395233)
(10.5643 -0.197939 0.0237243)
(10.4497 -0.286863 0.239265)
(11.7523 -0.264302 0.190849)
(11.8262 -0.339207 0.174038)
(11.7616 -0.303846 0.177438)
(10.5207 -0.12348 0.059416)
(10.3515 -0.216754 0.124593)
(12.2755 0.174888 -0.0932608)
(11.5397 0.119178 0.022691)
(11.954 0.0767977 -0.132596)
(11.6671 0.00362118 -0.061482)
(11.6232 0.117207 0.0379268)
(11.8343 -0.00462246 -0.0997778)
(11.7716 0.00790297 -0.0897978)
(11.7408 0.11923 0.00117864)
(12.1638 0.17424 -0.271309)
(12.1166 0.162272 -0.225552)
(12.2136 0.194331 -0.106319)
(12.1302 0.155645 -0.204011)
(12.213 0.187507 -0.103183)
(12.1761 0.0412496 0.130667)
(12.1088 0.00973989 0.143414)
(12.2997 0.0622503 0.157966)
(12.2401 0.00151721 0.179805)
(12.2077 -0.0129745 0.184412)
(12.1337 0.0337386 0.115315)
(12.1377 0.00239283 0.132244)
(12.2189 0.0228415 0.151109)
(12.1914 0.00387059 0.161)
(12.2106 0.0568637 0.1239)
(12.561 0.120737 0.160702)
(12.4891 0.104224 0.153717)
(12.2319 0.0433512 0.124075)
(12.4296 0.0980573 0.12851)
(12.4131 0.0926687 0.123099)
(9.80194 0.0859048 0.0233613)
(9.73912 0.0598934 0.0324956)
(9.66887 -0.00800495 -0.0197678)
(9.61638 0.000269051 -0.0208808)
(9.69314 0.0613538 -0.0117903)
(9.8134 0.0546918 -0.00442928)
(9.8367 0.0758259 0.00509806)
(9.65 0.0407422 -0.00841024)
(9.73395 0.0279776 -0.0129777)
(7.51295 -0.124361 -2.07814)
(7.37132 -0.0693091 -2.0558)
(7.37561 -0.322756 -2.18936)
(7.40359 -0.350587 -2.17124)
(7.10069 -0.178815 -2.22696)
(6.96964 -0.055142 -2.1736)
(6.90847 -0.2889 -2.40097)
(6.95425 -0.405434 -2.33915)
(7.07958 -0.0783531 -2.19694)
(7.0015 -0.335698 -2.372)
(7.02323 -0.39231 -2.2966)
(7.37553 -0.281181 -2.16489)
(7.33254 -0.390439 -2.21276)
(6.08959 0.0986003 0.221951)
(2.60326 0.207592 0.274015)
(3.37413 0.33732 0.0505698)
(6.60653 -0.0428833 0.0946717)
(7.03214 -0.167617 0.316188)
(6.47466 -0.262762 0.361031)
(6.74522 -0.0370335 0.269656)
(2.01533 0.35635 0.0885076)
(1.68464 0.687801 0.210846)
(3.30071 0.0616504 0.535159)
(3.25563 0.00786316 0.266654)
(12.2403 0.105726 0.150949)
(12.3426 0.130403 0.161554)
(12.359 0.143845 0.150931)
(12.0945 0.169907 0.0709838)
(12.0205 0.160918 0.0547033)
(12.057 0.109909 0.088362)
(12.079 0.141724 0.0777906)
(12.0326 0.157422 0.0561457)
(11.9534 0.147896 0.0558318)
(12.2324 0.0967787 0.141237)
(12.2828 0.113029 0.126931)
(11.8374 0.0600905 0.0426279)
(11.8113 0.0589562 0.0728234)
(11.8401 0.0968636 0.0120224)
(12.0086 0.116627 0.0815841)
(11.7778 0.0541725 0.054684)
(11.7743 0.0516371 0.0283796)
(-0.415507 -0.442036 0.0949854)
(-0.670342 -0.400865 0.369556)
(-0.321971 -0.379066 0.458062)
(-1.50867 -0.275236 0.61656)
(-1.93642 0.0296693 0.226077)
(-1.04443 -0.893937 -0.0217719)
(-1.6765 0.313715 0.228108)
(-1.64381 -0.554593 -0.0151693)
(-0.986879 -1.01093 -0.208908)
(-1.69575 -0.0190509 0.253052)
(-2.13209 -0.235161 -0.0190501)
(10.7393 0.0553922 0.0486085)
(10.6657 0.0617111 0.0147508)
(10.4828 0.0408849 0.0303619)
(10.3328 0.0134295 0.102528)
(10.2783 0.051246 -0.0310339)
(10.5243 0.00741653 0.123436)
(10.4978 0.0136182 0.0883169)
(10.2191 0.0691669 0.0794203)
(10.3675 0.0404744 0.0511921)
(10.113 0.0153215 0.0596644)
(10.3329 0.0412545 0.0361131)
(10.7997 0.222602 0.117049)
(10.7668 0.216536 0.100233)
(10.825 0.229764 0.116433)
(10.7803 0.210648 0.0929469)
(10.6037 0.203965 0.0606636)
(10.6716 0.219409 0.0832708)
(10.4862 0.240309 0.0313382)
(10.5558 0.249096 0.0449072)
(10.6973 0.243546 0.0658811)
(10.5726 0.230923 0.0479626)
(10.3889 0.236244 0.00046243)
(10.4603 0.243787 0.00399915)
(10.5169 0.193356 0.0435725)
(10.5718 0.20743 0.0526891)
(10.4906 0.211867 0.0455289)
(8.47916 -0.0680088 0.329797)
(8.38622 -0.0036906 0.245256)
(8.5225 -0.0225619 0.276911)
(8.89957 -0.0364807 0.233455)
(8.05711 -0.0230356 0.233233)
(11.8023 -0.0544171 0.672883)
(11.9359 -0.0927155 0.667547)
(12.0124 -0.11751 0.735012)
(11.9609 -0.103087 0.727523)
(12.3056 -0.199539 0.718538)
(12.2618 -0.21304 0.748224)
(12.1096 -0.130002 0.69176)
(7.94817 2.52599 -0.0887401)
(7.51289 2.69298 -0.599213)
(8.88279 2.29273 -0.344752)
(8.73165 2.5679 -0.51402)
(7.98748 2.97915 -0.159919)
(7.47227 3.01838 -0.697665)
(8.09131 2.26219 -0.0612355)
(7.58729 2.36779 -0.686349)
(8.23662 3.02739 -1.34689)
(7.36719 3.0874 -1.41729)
(8.29966 2.14818 -0.159109)
(7.97568 2.15422 -0.75926)
(8.32184 2.70057 -1.25529)
(7.78302 2.66193 -1.08947)
(8.95933 2.20416 -0.350493)
(8.48582 2.45217 -1.18219)
(7.92097 2.41463 -1.02505)
(8.98348 2.24506 -0.553872)
(9.6435 2.07612 -0.384119)
(9.79925 1.91467 -0.456702)
(9.62555 1.95866 -0.679314)
(9.55564 2.04935 -0.773894)
(9.56324 1.7748 -0.669243)
(9.489 2.07909 -0.76395)
(9.58842 1.91705 -0.252657)
(9.51859 2.0897 -0.308144)
(9.45377 2.20002 -0.643051)
(9.03623 2.02621 -0.589351)
(9.34425 1.7093 -0.502444)
(9.3127 1.88445 -0.300745)
(9.02917 2.22422 -0.262288)
(10.2501 3.17625 -1.02202)
(10.5959 2.74536 -0.949724)
(11.0054 2.07876 -0.406096)
(10.9173 1.97725 -0.408151)
(10.3912 2.46181 -0.920637)
(10.6156 2.45211 -0.838374)
(10.7446 2.18587 -0.559096)
(10.7173 2.11411 -0.561341)
(10.5027 3.17062 -0.870532)
(10.8307 2.90185 -0.724585)
(10.0041 2.81666 -0.955496)
(10.0799 2.91014 -0.941284)
(10.7721 2.6101 -0.345922)
(10.6847 2.41025 -0.319597)
(10.9966 2.33963 -0.402029)
(10.4405 2.15479 -0.635279)
(10.1298 2.61732 -0.599952)
(10.1979 2.74503 -0.632987)
(10.5006 2.70382 -0.376191)
(10.4899 2.5678 -0.400619)
(10.4305 2.83417 -0.554048)
(10.3462 2.50165 -0.468728)
(13.0491 -0.0577661 0.264477)
(12.7945 -0.0501583 0.235586)
(12.8616 -0.097807 0.242855)
(12.801 -0.0387938 0.244745)
(12.8752 -0.0921493 0.24333)
(13.1055 -0.032338 0.279166)
(12.9379 -0.00898163 0.270361)
(13.122 -0.0661266 0.22659)
(12.8853 -0.0572138 0.242635)
(13.0609 -0.0415426 0.273785)
(13.0187 -0.121671 0.233552)
(12.9378 -0.0264996 0.261605)
(13.1048 -0.0855367 0.224081)
(12.9575 -0.0445622 0.257004)
(13.114 -0.103618 0.222885)
(13.0967 -0.0620156 0.244298)
(5.14634 -0.564765 -0.181971)
(-0.436856 -1.24319 -0.631809)
(2.41008 0.986654 0.111283)
(1.92419 1.7225 0.0140741)
(10.7305 0.694595 -1.53608)
(10.9207 0.847537 -1.90701)
(4.89513 1.2779 -0.333602)
(5.5711 0.95386 -0.241516)
(11.2786 0.342307 -1.26359)
(11.4536 0.383762 -1.47069)
(-0.14548 -0.192067 0.572969)
(7.0947 -0.208909 -0.697489)
(4.92478 0.0679642 0.121706)
(5.6428 1.591 -0.11552)
(10.7499 0.735985 -1.30413)
(11.412 0.649447 -1.13262)
(12.492 0.0939872 0.300812)
(12.5412 0.137221 0.290363)
(12.4299 0.0890111 0.238238)
(12.3891 0.0903671 0.201256)
(12.3562 0.10398 0.212542)
(12.3713 0.0945817 0.26016)
(12.4851 0.10291 0.25405)
(12.5473 0.112314 0.290361)
(12.4765 0.140115 0.298502)
(12.4372 0.082538 0.302984)
(12.3031 0.10896 0.202351)
(12.2806 0.0787017 0.154)
(12.3362 0.0944264 0.220046)
(12.3639 0.0920938 0.26063)
(12.2898 0.0784619 0.146572)
(12.355 0.0849035 0.159671)
(12.4482 0.0840376 0.191871)
(12.3985 0.097785 0.205408)
(9.74668 1.73942 -0.187324)
(9.43041 1.67066 0.557131)
(9.33985 2.04123 0.718482)
(9.71935 1.90639 0.0671616)
(9.61395 2.05494 -0.0605878)
(9.23187 2.51092 0.178139)
(8.72092 2.70371 0.138792)
(9.37359 1.70905 -0.185393)
(9.54312 2.06836 0.482154)
(9.01751 1.918 0.524476)
(8.86733 2.19008 0.559768)
(8.80851 2.66743 0.264227)
(9.30777 2.40155 0.428144)
(9.73104 1.7751 0.264845)
(9.67536 1.60359 0.261192)
(9.63644 1.63824 -0.128065)
(10.5796 0.652966 -0.291631)
(10.6505 0.655047 -0.242639)
(10.6081 0.60006 -0.278284)
(10.6129 0.766841 -0.31708)
(10.7189 0.831243 -0.225986)
(10.5518 0.547503 -0.296302)
(10.4869 0.631567 -0.36505)
(10.5245 0.719478 -0.393224)
(10.5856 0.736317 -0.385808)
(10.5192 0.726028 -0.428764)
(10.575 0.73479 -0.369092)
(10.6475 0.739744 -0.411083)
(10.5947 0.729474 -0.453008)
(10.699 0.756909 -0.356519)
(10.6404 0.727179 -0.347823)
(10.4912 0.596077 -0.331266)
(10.4577 0.625714 -0.388286)
(11.6569 -0.0468928 0.724972)
(11.6653 -0.0208172 0.697736)
(11.7816 0.127833 0.598872)
(11.7855 0.160615 0.612718)
(11.778 0.16948 0.615568)
(11.7737 0.125014 0.593165)
(11.6729 -0.0108528 0.786725)
(11.6517 -0.00238255 0.812378)
(11.7829 0.289684 0.734655)
(11.7732 0.376483 0.879812)
(11.64 -0.00704783 0.652757)
(11.7823 0.130016 0.598914)
(11.7939 0.291671 0.737866)
(11.7928 0.325174 0.817734)
(11.6442 0.0128202 0.619363)
(11.8278 0.289629 0.800026)
(11.7153 0.00951069 0.74877)
(9.75363 -1.55642 0.813602)
(10.1677 -1.5689 0.81705)
(10.2822 -1.56503 0.904073)
(9.55271 -1.65771 0.827149)
(10.3377 -1.60395 0.761369)
(9.46238 -1.63819 0.78926)
(9.94612 -1.60579 0.599215)
(9.51899 -1.61362 0.565048)
(10.4085 -1.59867 0.790638)
(10.4806 -1.64443 0.847068)
(10.3427 -1.58101 0.914901)
(9.61702 -1.76887 0.775967)
(9.36064 -1.71108 0.451957)
(9.86428 -1.7485 0.480289)
(9.66894 -1.85202 0.394051)
(10.1581 -1.65326 0.590184)
(9.17954 -1.85083 0.368815)
(9.2606 -1.89512 0.351025)
(11.5685 -0.812677 0.579961)
(11.7398 -0.708721 0.581928)
(11.6867 -0.658121 0.545118)
(11.6583 -0.650851 0.369828)
(11.5022 -0.799634 0.417012)
(11.6689 -0.537002 0.482393)
(11.5256 -0.80676 0.582825)
(11.6213 -0.687937 0.55578)
(11.5731 -0.655503 0.537078)
(11.623 -0.508532 0.480478)
(11.5718 -0.68702 0.378737)
(11.4989 -0.680467 0.508433)
(11.5476 -0.590954 0.425069)
(11.4524 -0.842034 0.524237)
(11.5676 -1.14726 0.800103)
(11.5812 -1.07317 0.815553)
(11.5569 -0.99119 1.09401)
(11.8454 -0.805189 1.05623)
(11.6141 -0.989486 1.11062)
(11.5754 -1.03913 1.10874)
(11.4511 -1.20387 0.927278)
(11.6399 -1.08815 0.783504)
(11.6932 -0.987391 0.822826)
(11.5806 -1.19711 1.05982)
(11.6016 -1.16554 1.03606)
(11.5245 -1.20094 0.938776)
(11.6581 -1.087 0.818263)
(11.8624 -0.836698 0.881135)
(11.8788 -0.852602 0.859424)
(11.5927 -1.17776 0.894915)
(11.8846 -0.884115 0.923496)
(11.7027 -1.07544 0.973748)
(10.6678 3.28687 -0.882632)
(11.0393 3.21001 -0.7814)
(11.0294 2.96801 -0.727978)
(10.4531 3.23906 -0.662361)
(10.7662 3.43428 -0.671014)
(11.3792 2.91734 -0.437533)
(11.2248 2.55394 -0.398103)
(11.0604 3.37191 -0.109474)
(11.2739 3.19039 -0.073289)
(10.6051 3.2987 -0.269561)
(11.1235 2.50088 -0.347291)
(11.1253 3.5264 -0.294215)
(11.8346 -0.361793 1.06875)
(12.2753 -0.299114 1.09261)
(11.6493 -0.56111 1.01031)
(12.2559 -0.285414 1.07595)
(11.7187 -0.327824 1.08501)
(12.0473 -0.485307 0.929341)
(11.6581 -0.47718 1.0194)
(11.724 -0.529852 0.958896)
(11.9388 -0.519992 0.9697)
(12.4519 -0.256412 0.929852)
(12.552 -0.252313 0.833408)
(12.426 -0.291782 0.894406)
(12.2992 -0.422585 0.782619)
(12.425 -0.409822 0.761269)
(12.5387 -0.26476 0.825288)
(12.4054 -0.3989 0.752309)
(11.708 -0.125786 1.09543)
(11.5312 -0.00826625 1.01039)
(11.6231 -0.0806021 1.06012)
(11.5061 -0.00173615 0.971415)
(11.212 0.0089868 1.16816)
(11.1197 -0.213306 1.29155)
(10.7573 -0.23728 1.30409)
(11.1727 0.0839077 1.28061)
(11.2003 0.032411 1.13826)
(11.4673 0.0276987 0.989159)
(11.5632 -0.0503151 1.04113)
(11.5674 -0.225074 1.15018)
(10.8162 -0.299348 1.2578)
(11.4569 -0.156461 1.09897)
(11.349 -0.293694 1.17745)
(11.36 -0.284182 1.17874)
(12.3472 0.463177 0.564432)
(12.41 0.478563 0.586687)
(12.458 0.412687 0.533969)
(12.2776 0.533439 0.401527)
(12.0842 0.706186 0.531936)
(12.3004 0.288553 0.496532)
(12.2319 0.299187 0.486808)
(12.4804 0.572734 0.52548)
(12.3709 0.64748 0.59413)
(12.3143 0.63845 0.425093)
(12.1667 0.722018 0.52987)
(12.2893 0.588286 0.598882)
(12.2321 0.545553 0.57132)
(12.1177 0.511277 0.593122)
(12.2023 0.434799 0.48298)
(12.3713 0.302647 0.5002)
(12.3361 0.362617 0.461724)
(12.2616 0.35811 0.480546)
(12.3735 0.528932 0.466285)
(10.8621 -0.51331 -0.950389)
(10.8332 -0.530841 -0.939455)
(11.0133 -0.518756 -0.796628)
(10.6786 -0.639985 -0.998282)
(10.9114 -0.519769 -0.931869)
(10.6889 -0.654602 -0.91375)
(10.9136 -0.659891 -0.968459)
(11.1772 -0.46318 -0.872059)
(10.8492 -0.661584 -0.832264)
(11.2659 -0.498085 -0.698938)
(10.7232 -0.67634 -0.919836)
(10.9858 -0.673167 -0.865019)
(10.9913 -0.70164 -0.763977)
(11.0014 -0.713712 -0.785967)
(10.0166 -1.06074 -0.405434)
(10.0272 -1.03848 -0.432702)
(10.3226 -1.00172 -0.252098)
(10.0958 -1.07043 -0.255941)
(10.1899 -0.995944 -0.340059)
(10.2232 -1.05852 -0.27236)
(10.5433 -0.906433 -0.240777)
(10.4358 -0.894813 -0.526683)
(10.3743 -0.919516 -0.513866)
(10.7832 -0.78616 -0.33788)
(10.6939 -0.811765 -0.315499)
(10.1567 -1.09791 -0.50255)
(10.6722 -0.832722 -0.347899)
(10.5275 -0.878642 -0.518126)
(10.5211 -0.888219 -0.515028)
(10.7718 -0.784586 -0.353527)
(10.718 -0.789686 -0.332673)
(10.598 -0.872999 -0.467959)
(11.597 1.33298 -0.152296)
(11.1731 1.43834 -0.582756)
(10.8549 1.56944 -0.840927)
(12.2418 0.659177 -0.29612)
(12.162 0.87594 -0.249128)
(11.5765 1.16451 -0.501002)
(11.8107 1.08657 -0.181372)
(12.3549 0.618583 -0.285494)
(12.1935 0.885357 -0.219416)
(11.1705 1.15326 -0.830842)
(11.7051 0.883193 -0.640718)
(5.13226 -0.149017 -0.671305)
(5.26909 -0.211054 -0.608221)
(5.09269 -0.130442 -0.816676)
(5.04505 0.0297371 -0.892668)
(4.32599 0.520961 -1.21371)
(3.69949 0.258806 -1.19074)
(3.99036 0.64179 -1.30257)
(3.60469 0.411394 -1.36259)
(5.35718 -0.343395 -0.679447)
(5.55689 -0.502432 -0.642491)
(4.93892 -0.435502 -0.895705)
(4.16583 -0.388853 -1.09299)
(4.07507 -0.247175 -1.12503)
(3.97594 -0.222059 -1.01869)
(3.86965 -0.0414448 -1.10783)
(3.87171 -0.194867 -1.08631)
(3.65608 0.303436 -1.33031)
(5.44876 -0.570069 -0.791136)
(5.06192 -0.58705 -0.978574)
(5.43955 -0.754686 -0.861519)
(4.88904 -0.249474 -1.00541)
(13.2673 -0.163698 0.27464)
(13.2765 -0.160387 0.239584)
(13.2669 -0.0907852 0.30044)
(13.2943 -0.117591 0.258257)
(13.2659 -0.106729 0.307578)
(13.2513 -0.171964 0.270196)
(13.2542 -0.171166 0.281896)
(13.2531 -0.075285 0.284354)
(13.2206 -0.0692067 0.312623)
(13.1303 -0.0934907 0.336918)
(13.1398 -0.110224 0.314215)
(13.0865 -0.0902466 0.345767)
(13.2492 -0.08788 0.276723)
(13.1331 -0.0822243 0.331413)
(13.0558 -0.0704886 0.322555)
(13.1546 -0.0859045 0.295335)
(13.0634 -0.0581722 0.321524)
(11.5733 0.161041 1.01702)
(11.4119 0.166038 1.05919)
(11.2027 0.0675788 1.24621)
(10.6033 0.125104 1.30948)
(11.5592 0.170206 1.07592)
(11.4366 0.156756 1.15727)
(10.5395 0.562006 0.771789)
(10.5323 0.415002 0.989722)
(11.32 0.0925385 1.21771)
(10.601 0.188845 1.2392)
(10.7298 0.384114 1.20302)
(9.42899 0.13541 0.286106)
(9.4443 0.208884 0.196913)
(9.40192 0.243976 0.241211)
(8.02917 0.231242 0.13788)
(8.48394 0.197454 0.240871)
(6.99834 0.321 0.198678)
(6.39097 0.328493 0.197508)
(7.02087 0.141962 0.309048)
(7.87652 0.379269 0.225443)
(8.47653 0.307162 0.189944)
(6.20092 0.323902 0.059339)
(6.91792 0.367186 0.122926)
(6.48185 0.336141 0.148448)
(11.5556 -0.416841 -0.421563)
(11.4796 -0.382743 -0.399138)
(11.5806 -0.425883 -0.31066)
(11.6373 -0.424689 -0.31347)
(11.5343 -0.50019 -0.438029)
(11.4894 -0.473368 -0.408526)
(11.4948 -0.472175 -0.492569)
(11.4415 -0.47064 -0.496599)
(11.5145 -0.367328 -0.292578)
(11.6182 -0.39945 -0.324916)
(11.3882 -0.388751 -0.408707)
(11.4219 -0.37003 -0.385998)
(11.643 -0.400951 -0.285325)
(11.4277 -0.473122 -0.44761)
(11.5588 -0.38252 -0.253273)
(11.5244 -0.388097 -0.287614)
(11.3692 -0.382689 -0.36652)
(11.4093 -0.367375 -0.332098)
(11.4857 -0.379631 -0.270629)
(11.4863 -0.381003 -0.257737)
(11.4665 -0.378655 -0.296375)
(11.4122 -0.416444 -0.363794)
(11.7561 -0.598771 -0.766762)
(12.1555 -0.511247 -0.662276)
(11.5497 -0.465348 -0.872213)
(12.1399 -0.388238 -0.692841)
(12.1638 -0.529992 -0.63492)
(11.4405 -0.695347 -0.79123)
(11.4583 -0.414238 -0.905025)
(12.0986 -0.375163 -0.685822)
(11.7536 -0.401232 -0.82294)
(11.4027 -0.703196 -0.779347)
(11.7466 -0.613487 -0.650182)
(11.8107 -0.618674 -0.671816)
(11.1909 -0.541924 -0.968382)
(12.0419 -0.403696 -0.706725)
(11.7162 -0.394436 -0.828209)
(11.0664 -0.582876 -1.03036)
(11.4207 -0.466571 -0.969754)
(11.8514 -0.528409 -0.723282)
(12.1081 -0.504006 -0.647813)
(12.0406 -0.476342 -0.682332)
(12.1647 0.203719 0.270427)
(12.1098 0.196065 0.290572)
(12.1441 0.203305 0.363678)
(12.1425 0.225924 0.422332)
(12.1098 0.193662 0.252646)
(12.0827 0.196504 0.280726)
(12.0976 0.205665 0.410515)
(12.0836 0.198918 0.372689)
(12.1895 0.175702 0.352454)
(12.1149 0.176664 0.394892)
(12.1563 0.186131 0.365077)
(12.0837 0.181563 0.271452)
(12.039 0.181846 0.268568)
(12.0463 0.193714 0.280983)
(12.187 0.181086 0.380611)
(12.1503 0.172533 0.422305)
(12.0602 0.161552 0.346057)
(12.0043 0.187015 0.277237)
(12.0363 0.18564 0.37246)
(12.0464 0.198578 0.41931)
(11.9838 0.189259 0.345241)
(12.0081 0.187332 0.396056)
(10.7426 0.258344 0.850303)
(10.7682 0.329258 0.924002)
(11.7801 0.146772 0.82202)
(11.7517 0.165142 0.798949)
(11.6007 0.157566 0.904972)
(11.5105 0.22078 0.942123)
(11.6105 0.183784 0.81951)
(11.5509 0.185261 0.924098)
(11.3498 0.202805 0.853285)
(10.8585 0.204576 0.788497)
(10.7968 0.174006 0.782657)
(10.9236 0.191903 0.797534)
(11.5836 0.251129 0.833799)
(11.6965 0.189842 0.716815)
(11.7252 0.154715 0.755347)
(11.0602 0.193525 0.74722)
(11.3567 0.203534 0.699291)
(12.29 0.392781 0.898234)
(12.2881 0.470687 0.87317)
(12.5306 0.21083 0.849569)
(12.491 0.308972 0.79738)
(12.5391 0.251136 0.81814)
(12.6278 0.222831 0.808863)
(12.665 0.206513 0.778122)
(12.5568 0.402067 0.713889)
(12.5303 0.391468 0.73253)
(12.4744 0.477529 0.706175)
(12.5346 0.457376 0.696045)
(12.6427 0.26865 0.763302)
(12.5251 0.494878 0.701254)
(12.4648 0.494429 0.706671)
(10.9767 0.789555 -0.439445)
(10.9173 0.726615 -0.292637)
(10.8624 0.680064 -0.289608)
(10.9161 0.727395 -0.467675)
(10.849 0.724116 -0.472037)
(10.9633 0.589884 -0.331109)
(10.9035 0.529269 -0.301065)
(11.0011 0.648068 -0.343482)
(10.9573 0.586321 -0.342019)
(10.8841 0.537746 -0.31053)
(12.8756 -0.28111 0.575343)
(12.8553 -0.310199 0.577688)
(12.7483 -0.232294 0.653666)
(12.7637 -0.232845 0.607702)
(12.8635 -0.37269 0.622963)
(12.8733 -0.395229 0.638493)
(12.8075 -0.253469 0.610381)
(12.7964 -0.201832 0.620064)
(12.8257 -0.368114 0.644309)
(12.7364 -0.203332 0.659535)
(12.7563 -0.25348 0.699492)
(12.7607 -0.2233 0.700443)
(12.7527 -0.179062 0.664168)
(12.7981 -0.335045 0.697616)
(12.7783 -0.180533 0.662267)
(12.7793 -0.21937 0.687647)
(12.8148 -0.338413 0.686897)
(8.45557 -0.0125531 -0.0527087)
(8.37768 -0.000722551 0.0143272)
(8.30445 0.0593599 0.0938507)
(7.86654 -0.0310005 -0.0142556)
(7.84407 -0.0556079 -0.125635)
(8.20963 0.0184369 -0.0125806)
(8.48424 -0.232463 -0.374636)
(8.4971 -0.213169 -0.377414)
(8.30453 -0.207409 -0.347372)
(8.13405 -0.204563 -0.31293)
(8.34705 0.0766233 0.111397)
(8.41557 0.0247297 -0.0077298)
(8.49665 -0.114926 -0.11772)
(8.47886 -0.0723819 -0.119048)
(8.15383 -0.125444 -0.275029)
(8.0492 -0.149454 -0.292788)
(7.73163 -0.0753643 -0.175191)
(8.30941 -0.0103462 -0.0743023)
(8.47651 -0.157411 -0.165702)
(8.32335 -0.101321 -0.183417)
(11.7747 -0.00324084 0.49028)
(11.6255 -0.0673234 0.479857)
(11.6178 -0.00371864 0.461339)
(11.7355 0.0211568 0.485457)
(11.6101 -0.109521 0.499799)
(11.3209 -0.0809357 0.497235)
(11.5472 -0.176105 0.486846)
(11.7921 -0.0219235 0.44806)
(11.7829 -0.00168076 0.474685)
(11.7265 -0.0603033 0.479448)
(11.3554 -0.197906 0.429568)
(11.2947 -0.1097 0.494708)
(11.7509 0.0239 0.476962)
(11.5058 -0.0794927 0.47596)
(11.5142 -0.117042 0.458531)
(11.2597 -0.165693 0.456251)
(3.36285 -0.57329 0.462534)
(3.41789 -0.678465 0.678929)
(2.44439 -0.588054 1.13561)
(2.23316 -0.474215 1.05355)
(6.59696 -0.847176 0.312335)
(4.97268 -0.722104 0.433405)
(8.1628 -0.416988 0.501089)
(6.0123 -0.0993368 0.589419)
(3.3997 0.243611 1.26316)
(4.97019 -0.28851 0.920403)
(8.05694 -0.390864 0.385755)
(6.16322 -0.425042 0.588344)
(5.08221 0.02181 0.525978)
(12.4117 -0.229403 1.19253)
(12.3868 -0.143051 1.24798)
(12.4593 -0.253669 1.15938)
(12.5338 -0.270914 1.05211)
(12.6132 -0.251298 0.986233)
(12.544 -0.233935 1.08938)
(12.379 -0.122679 1.25358)
(12.4082 -0.00256017 1.11333)
(12.4913 -0.133362 1.05437)
(12.5279 -0.239558 1.0149)
(12.6565 -0.170971 0.944497)
(12.4312 0.0530495 1.07426)
(11.7914 0.352124 -0.142053)
(11.7455 0.264073 -0.166071)
(11.7933 0.228725 -0.1794)
(11.8833 0.354285 -0.118662)
(11.822 0.301618 -0.117871)
(11.859 0.27744 -0.136829)
(12.0139 0.333371 -0.151359)
(12.1017 0.339214 -0.165328)
(12.0052 0.249965 -0.162096)
(11.9632 0.238856 -0.161956)
(12.0357 0.545796 -0.247693)
(12.118 0.539227 -0.247289)
(11.9584 0.492928 -0.265115)
(12.0168 0.483408 -0.247944)
(11.8686 0.487061 -0.268959)
(11.9079 0.41019 -0.187332)
(11.915 0.326552 -0.126122)
(11.9721 0.498951 -0.239279)
(11.9915 0.383852 -0.163818)
(11.9365 -0.565447 0.251878)
(11.9157 -0.528388 0.334287)
(12.0376 -0.44195 0.179634)
(12.0152 -0.391173 0.22805)
(12.0499 -0.389769 0.246964)
(12.4476 -0.469619 0.383767)
(12.3143 -0.487866 0.391742)
(11.9995 -0.504971 0.316174)
(12.2 -0.493837 0.222697)
(12.7761 -0.397898 0.553215)
(12.7756 -0.404828 0.529973)
(12.1462 -0.513105 0.405014)
(12.7745 -0.44102 0.357608)
(12.5877 -0.468031 0.335897)
(12.75 -0.418894 0.466771)
(12.87 -0.381672 0.531741)
(12.8849 -0.357029 0.483461)
(12.6275 -0.472656 0.427363)
(12.8486 -0.376545 0.436379)
(3.00637 1.23024 -1.47758)
(3.09802 1.11617 -1.64413)
(3.44966 0.940703 -1.4609)
(3.21559 1.06583 -1.41043)
(3.2837 1.08113 -1.51283)
(3.31626 1.0561 -1.64924)
(3.53929 0.94466 -1.42706)
(3.57471 0.846207 -1.35559)
(3.69718 0.785784 -1.26743)
(3.74668 0.847628 -1.50811)
(4.16866 0.674222 -1.26098)
(4.13842 0.633297 -1.23387)
(3.897 0.730541 -1.28005)
(4.03175 0.636977 -1.26336)
(4.03876 0.702057 -1.28227)
(3.62854 0.947542 -1.60224)
(10.9973 0.463071 -0.323027)
(10.9165 0.43294 -0.252608)
(10.9756 0.432555 -0.331931)
(11.0677 0.496123 -0.400496)
(11.0183 0.492612 -0.677266)
(10.9361 0.488145 -0.672307)
(10.9192 0.440441 -0.314246)
(11.033 0.50478 -0.544076)
(10.9776 0.51563 -0.669061)
(10.9283 0.487188 -0.680112)
(10.8966 0.363752 -0.382252)
(10.9934 0.422813 -0.491866)
(10.9704 0.505638 -0.498395)
(10.852 0.373788 -0.389227)
(10.8041 0.379793 -0.398065)
(10.8796 0.468915 -0.522984)
(8.95639 0.263757 -1.02968)
(7.44452 0.160303 -1.00843)