/*--------------------------------*- C++ -*----------------------------------*\
  =========                 |
  \\      /  F ield         | OpenFOAM: The Open Source CFD Toolbox
   \\    /   O peration     | Website:  https://openfoam.org
    \\  /    A nd           | Version:  10
     \\/     M anipulation  |
\*---------------------------------------------------------------------------*/
FoamFile
{
    format      ascii;
    class       volScalarField;
    location    "17";
    object      C;
}
// * * * * * * * * * * * * * * * * * * * * * * * * * * * * * * * * * * * * * //

dimensions      [1 3 0 0 0 0 0];

internalField   nonuniform List<scalar> 
75457
(
0.499997
0.499997
0.499998
0.499999
0.499997
0.499997
0.499998
0.499998
0.499999
0.499999
0.499999
0.499997
0.499997
0.499999
0.499956
0.499963
0.499981
0.499969
0.499967
0.499982
0.499972
0.499978
0.499961
0.499961
0.499978
0.499933
0.499931
0.495157
0.494069
0.495104
0.495866
0.493923
0.494013
0.497197
0.497181
0.497557
0.497244
0.493504
0.494219
0.497426
0.49759
0.497469
0.497545
0.498103
0.497191
0.498925
0.498914
0.498053
0.49996
0.499632
0.499604
0.499952
0.499939
0.499665
0.499804
0.499846
0.499857
0.499858
0.499969
0.499949
0.499918
0.499965
0.5
0.5
0.5
0.5
0.5
0.5
0.5
0.5
0.5
0.5
0.5
0.5
0.5
0.5
0.5
0.334347
0.355891
0.373699
0.338225
0.345032
0.342633
0.363797
0.365173
0.358135
0.386825
0.399526
0.359593
0.370682
0.326867
0.368984
0.36059
0.34279
0.5
0.5
0.5
0.5
0.5
0.5
0.5
0.5
0.5
0.5
0.5
0.5
0.5
0.5
0.5
0.5
0.5
0.5
0.5
0.5
0.5
0.5
0.5
0.5
0.5
0.5
0.5
0.5
0.5
0.5
0.5
0.5
0.5
0.5
0.5
0.5
0.5
0.5
0.5
0.5
0.5
0.5
0.5
0.5
0.5
0.5
0.5
0.5
0.5
0.5
0.5
0.5
0.5
0.5
0.5
0.5
0.5
0.5
0.5
0.5
0.5
0.5
0.5
0.5
0.5
0.5
0.5
0.5
0.5
0.5
0.5
0.5
0.5
0.5
0.5
0.5
0.5
0.5
0.5
0.5
0.5
0.5
0.5
0.5
0.5
0.5
0.5
0.5
0.5
0.5
0.5
0.5
0.5
0.5
0.5
0.5
0.499845
0.499798
0.499772
0.499626
0.499527
0.499581
0.5
0.5
0.5
0.5
0.5
0.5
0.5
0.5
0.5
0.5
0.5
0.499999
0.5
0.5
0.499999
0.499999
0.5
0.499999
0.499999
0.499999
0.5
0.499999
0.499999
0.5
0.499999
0.5
0.5
0.5
0.5
0.5
0.5
0.5
0.5
0.5
0.5
0.5
0.5
0.5
0.5
0.499986
0.49998
0.499985
0.499991
0.499991
0.499984
0.499993
0.499986
0.499979
0.499988
0.499982
0.499993
0.499995
0.49998
0.499985
0.499994
0.499985
0.496713
0.496917
0.496842
0.496926
0.49775
0.497893
0.498019
0.498614
0.498587
0.4986
0.496637
0.497968
0.499322
0.499517
0.498247
0.499303
0.499526
0.499378
0.49933
0.499541
0.498159
0.497551
0.499325
0.49769
0.499337
0.5
0.5
0.5
0.5
0.5
0.5
0.5
0.5
0.5
0.5
0.5
0.5
0.5
0.5
0.5
0.483609
0.483505
0.481396
0.482387
0.483648
0.483364
0.483478
0.483401
0.483255
0.202357
0.205922
0.233445
0.225473
0.233046
0.228258
0.240336
0.246663
0.222399
0.236911
0.242814
0.219104
0.229037
0.373973
0.190906
0.235139
0.260712
0.29742
0.279574
0.306412
0.253024
0.216963
0.198652
0.216713
0.5
0.5
0.5
0.5
0.5
0.5
0.5
0.5
0.5
0.5
0.5
0.5
0.5
0.5
0.5
0.5
0.5
0.417753
0.421753
0.418212
0.430264
0.408788
0.4056
0.416605
0.37806
0.406917
0.429313
0.399327
0.49119
0.494077
0.493928
0.489282
0.493835
0.479615
0.479813
0.489231
0.493825
0.489185
0.49379
0.499248
0.499603
0.499087
0.499601
0.499606
0.499365
0.499147
0.499124
0.499077
0.499339
0.499396
0.499237
0.499604
0.49964
0.499517
0.407225
0.380874
0.391885
0.372913
0.372036
0.499975
0.499976
0.499931
0.499968
0.499846
0.499847
0.499962
0.5
0.5
0.5
0.5
0.5
0.5
0.5
0.5
0.5
0.5
0.5
0.5
0.5
0.5
0.5
0.5
0.5
0.5
0.5
0.5
0.5
0.5
0.5
0.5
0.5
0.5
0.5
0.5
0.5
0.5
0.5
0.5
0.5
0.5
0.5
0.5
0.5
0.5
0.5
0.5
0.5
0.5
0.5
0.5
0.5
0.5
0.5
0.5
0.5
0.5
0.5
0.5
0.5
0.5
0.499993
0.499992
0.499994
0.499992
0.5
0.499996
0.499999
0.499995
0.5
0.499995
0.499996
0.499998
0.499996
0.499998
0.499999
0.499982
0.49988
0.499849
0.499843
0.49997
0.499962
0.499839
0.499849
0.499996
0.499996
0.499876
0.499984
0.499983
0.499869
0.499971
0.499996
0.5
0.5
0.5
0.5
0.5
0.5
0.5
0.5
0.5
0.5
0.5
0.5
0.5
0.5
0.5
0.5
0.5
0.5
0.5
0.5
0.5
0.5
0.5
0.5
0.5
0.5
0.5
0.5
0.5
0.5
0.5
0.5
0.5
0.5
0.5
0.5
0.5
0.5
0.5
0.5
0.5
0.5
0.5
0.5
0.5
0.5
0.5
0.5
0.5
0.5
0.5
0.5
0.5
0.5
0.5
0.5
0.5
0.5
0.5
0.5
0.5
0.5
0.5
0.5
0.5
0.5
0.5
0.5
0.49187
0.492277
0.492631
0.491525
0.491219
0.491447
0.488236
0.488289
0.491243
0.492116
0.49265
0.491476
0.486635
0.488013
0.488348
0.488672
0.488366
0.488405
0.498589
0.499149
0.499228
0.499608
0.498995
0.499583
0.498588
0.499113
0.499162
0.499583
0.499488
0.499106
0.499537
0.498565
0.496288
0.496581
0.496095
0.497198
0.496027
0.495975
0.495355
0.496478
0.496805
0.495586
0.495594
0.495365
0.496404
0.497465
0.497446
0.49545
0.497174
0.495919
0.5
0.5
0.5
0.5
0.5
0.5
0.5
0.5
0.5
0.5
0.5
0.5
0.494997
0.497209
0.494491
0.497062
0.494724
0.495743
0.494982
0.495048
0.495422
0.497812
0.498134
0.497983
0.497331
0.49724
0.498119
0.497334
0.498722
0.497731
0.498458
0.49781
0.496566
0.496075
0.494199
0.496736
0.496751
0.497803
0.498252
0.498057
0.494168
0.497901
0.497474
0.497369
0.5
0.5
0.5
0.5
0.5
0.5
0.5
0.5
0.5
0.5
0.5
0.5
0.5
0.5
0.5
0.5
0.5
0.5
0.5
0.49958
0.499565
0.499713
0.499426
0.499626
0.499497
0.49963
0.49979
0.499605
0.499866
0.499509
0.499719
0.499738
0.499747
0.493677
0.49392
0.495551
0.493505
0.494718
0.495311
0.497829
0.498526
0.497982
0.499407
0.49884
0.49658
0.499241
0.499096
0.499119
0.49939
0.499074
0.499175
0.499994
0.499989
0.499987
0.499998
0.499998
0.499991
0.499995
0.499998
0.499998
0.499989
0.499992
0.460976
0.461328
0.461523
0.461023
0.450932
0.443182
0.443577
0.430726
0.462619
0.463806
0.459107
0.44697
0.445958
0.449644
0.44542
0.446451
0.435682
0.463482
0.458084
0.461517
0.457828
0.499964
0.499967
0.499998
0.499991
0.499998
0.499968
0.499965
0.5
0.5
0.499999
0.499996
0.499999
0.5
0.499999
0.5
0.5
0.5
0.496823
0.496349
0.49592
0.494344
0.496895
0.496636
0.493702
0.493841
0.496226
0.494367
0.494454
0.455967
0.456047
0.456056
0.436448
0.452954
0.425427
0.4192
0.437782
0.452779
0.454038
0.433589
0.437295
0.436625
0.499976
0.499975
0.499989
0.499989
0.49997
0.499973
0.499961
0.49996
0.499992
0.49999
0.499972
0.499974
0.499994
0.499966
0.499994
0.499991
0.499976
0.499981
0.499992
0.499993
0.499991
0.499977
0.499954
0.499981
0.499909
0.499979
0.499985
0.49991
0.499896
0.499979
0.499937
0.499905
0.499955
0.499959
0.499822
0.499974
0.499935
0.499769
0.499865
0.499968
0.499985
0.49998
0.499164
0.498068
0.496527
0.496829
0.499202
0.498296
0.496536
0.495953
0.498958
0.498975
0.499088
0.499175
0.499086
0.498277
0.49908
0.498847
0.498995
0.498256
0.496025
0.496495
0.496815
0.496193
0.492041
0.492476
0.497454
0.496945
0.496901
0.49617
0.496974
0.49693
0.495755
0.492358
0.4918
0.492648
0.496076
0.496309
0.497043
0.492783
0.493759
0.499001
0.498994
0.499332
0.499377
0.499451
0.499479
0.499605
0.499428
0.499433
0.499286
0.499324
0.499555
0.499198
0.499135
0.5
0.5
0.5
0.5
0.5
0.5
0.5
0.5
0.5
0.5
0.499808
0.499812
0.499869
0.499883
0.49955
0.499396
0.499863
0.49991
0.499512
0.499851
0.499756
0.499757
0.49987
0.499376
0.49987
0.499749
0.49931
0.499488
0.499491
0.499208
0.498953
0.498915
0.499142
0.499429
0.499422
0.499152
0.498979
0.499241
0.499308
0.499598
0.499519
0.49918
0.498813
0.498493
0.499233
0.499525
0.499257
0.5
0.5
0.5
0.5
0.5
0.5
0.5
0.5
0.5
0.5
0.5
0.5
0.5
0.5
0.5
0.5
0.430532
0.427952
0.433248
0.438141
0.46168
0.451239
0.473032
0.454892
0.449979
0.452671
0.472619
0.455492
0.448147
0.497108
0.496944
0.497361
0.497925
0.498433
0.498006
0.496954
0.497891
0.498295
0.497946
0.498843
0.498005
0.5
0.5
0.5
0.5
0.5
0.5
0.5
0.5
0.5
0.5
0.5
0.5
0.5
0.5
0.5
0.5
0.5
0.5
0.5
0.495017
0.494758
0.496662
0.496652
0.49665
0.496911
0.496384
0.495558
0.496874
0.498548
0.498554
0.495865
0.498562
0.498055
0.498228
0.498914
0.499055
0.498133
0.498786
0.428269
0.42855
0.436348
0.432553
0.429225
0.42949
0.43745
0.442252
0.443205
0.440192
0.449536
0.450361
0.442252
0.445772
0.446096
0.434156
0.5
0.5
0.5
0.5
0.5
0.5
0.5
0.5
0.5
0.5
0.5
0.5
0.5
0.5
0.5
0.5
0.476204
0.456405
0.480702
0.459739
0.476369
0.445953
0.493634
0.483846
0.495455
0.495475
0.493664
0.4832
0.457993
0.438746
0.476523
0.493544
0.49335
0.493564
0.483297
0.45126
0.5
0.5
0.5
0.5
0.5
0.5
0.5
0.5
0.5
0.5
0.5
0.5
0.5
0.5
0.5
0.5
0.5
0.5
0.5
0.5
0.5
0.5
0.5
0.5
0.499999
0.499999
0.5
0.499999
0.499999
0.499999
0.499999
0.5
0.499999
0.499999
0.499999
0.5
0.5
0.499999
0.5
0.5
0.5
0.5
0.5
0.5
0.5
0.499998
0.499998
0.499998
0.499998
0.499999
0.5
0.499997
0.499997
0.499998
0.499998
0.499999
0.499997
0.499998
0.499999
0.499999
0.499999
0.499999
0.499999
0.499999
0.499654
0.498486
0.498749
0.49969
0.499561
0.49873
0.498661
0.499352
0.499152
0.498962
0.499703
0.499723
0.499262
0.499361
0.499304
0.499432
0.499996
0.499991
0.499992
0.499988
0.499997
0.499995
0.499988
0.499992
0.499997
0.5
0.5
0.5
0.5
0.5
0.5
0.5
0.5
0.5
0.5
0.5
0.5
0.5
0.5
0.5
0.5
0.5
0.5
0.5
0.5
0.5
0.5
0.5
0.5
0.5
0.5
0.5
0.5
0.5
0.5
0.5
0.5
0.499999
0.5
0.5
0.5
0.5
0.5
0.5
0.5
0.5
0.499999
0.5
0.5
0.5
0.5
0.5
0.5
0.5
0.499999
0.499997
0.499999
0.499999
0.499998
0.499996
0.499985
0.49999
0.499997
0.499997
0.499996
0.499997
0.49999
0.499988
0.499992
0.499983
0.499983
0.499992
0.499991
0.499989
0.499748
0.499837
0.499652
0.499756
0.499727
0.499403
0.499358
0.499721
0.499404
0.499313
0.498526
0.49864
0.49879
0.499077
0.499494
0.498898
0.410273
0.408259
0.408144
0.402749
0.3845
0.390772
0.402657
0.388171
0.396206
0.5
0.5
0.5
0.499994
0.5
0.5
0.5
0.5
0.499994
0.499996
0.499999
0.499995
0.499998
0.499998
0.49999
0.499996
0.499992
0.499999
0.499999
0.499997
0.49999
0.499993
0.499994
0.499999
0.49999
0.499996
0.499999
0.499999
0.5
0.5
0.5
0.5
0.5
0.5
0.5
0.5
0.5
0.5
0.5
0.5
0.5
0.5
0.5
0.5
0.5
0.5
0.5
0.5
0.5
0.5
0.5
0.5
0.5
0.5
0.5
0.5
0.5
0.5
0.5
0.5
0.5
0.5
0.5
0.5
0.5
0.5
0.5
0.5
0.5
0.5
0.5
0.5
0.5
0.5
0.5
0.5
0.5
0.5
0.5
0.5
0.5
0.5
0.5
0.5
0.5
0.5
0.5
0.5
0.5
0.5
0.5
0.5
0.5
0.5
0.5
0.5
0.5
0.5
0.5
0.5
0.5
0.5
0.5
0.5
0.5
0.5
0.5
0.5
0.499957
0.499958
0.499952
0.499955
0.499931
0.499952
0.499958
0.499965
0.499957
0.499937
0.499954
0.499965
0.499973
0.499968
0.499973
0.49997
0.499964
0.499971
0.499977
0.5
0.5
0.5
0.5
0.498952
0.498845
0.499999
0.499999
0.499999
0.5
0.499999
0.5
0.5
0.499058
0.498058
0.499728
0.499996
0.499999
0.499996
0.499996
0.499465
0.499589
0.499132
0.499599
0.499416
0.499245
0.499197
0.498446
0.499532
0.499523
0.499181
0.499534
0.498729
0.498886
0.498475
0.499519
0.49944
0.499528
0.498946
0.348144
0.352496
0.364065
0.365825
0.35117
0.347781
0.358426
0.363645
0.36016
0.382144
0.384919
0.386395
0.385957
0.37317
0.367418
0.372501
0.5
0.5
0.5
0.5
0.5
0.5
0.5
0.5
0.5
0.5
0.5
0.5
0.5
0.5
0.5
0.5
0.5
0.5
0.5
0.5
0.5
0.5
0.5
0.5
0.5
0.5
0.5
0.5
0.5
0.5
0.5
0.5
0.5
0.5
0.5
0.5
0.5
0.5
0.5
0.5
0.5
0.5
0.5
0.5
0.5
0.5
0.5
0.5
0.5
0.5
0.5
0.5
0.5
0.5
0.5
0.5
0.5
0.5
0.5
0.5
0.5
0.5
0.5
0.5
0.499999
0.499999
0.499999
0.499999
0.499999
0.5
0.5
0.5
0.5
0.5
0.5
0.5
0.5
0.5
0.5
0.5
0.5
0.5
0.5
0.5
0.5
0.5
0.5
0.5
0.5
0.5
0.5
0.5
0.5
0.5
0.5
0.5
0.5
0.5
0.5
0.5
0.5
0.5
0.5
0.5
0.5
0.5
0.5
0.5
0.5
0.5
0.5
0.5
0.5
0.5
0.5
0.5
0.5
0.5
0.5
0.5
0.5
0.5
0.5
0.5
0.5
0.5
0.5
0.5
0.5
0.5
0.5
0.5
0.5
0.5
0.5
0.5
0.5
0.5
0.5
0.5
0.5
0.5
0.5
0.5
0.5
0.5
0.5
0.5
0.5
0.5
0.5
0.5
0.5
0.5
0.5
0.5
0.5
0.5
0.5
0.5
0.5
0.5
0.5
0.5
0.5
0.5
0.5
0.5
0.5
0.5
0.5
0.5
0.5
0.5
0.5
0.5
0.5
0.5
0.5
0.5
0.5
0.5
0.5
0.5
0.5
0.5
0.5
0.5
0.5
0.5
0.5
0.5
0.499998
0.499995
0.499998
0.499977
0.499993
0.499993
0.499981
0.499977
0.499996
0.401815
0.401118
0.402596
0.40512
0.5
0.5
0.5
0.5
0.5
0.5
0.5
0.5
0.5
0.5
0.5
0.5
0.5
0.5
0.5
0.5
0.5
0.5
0.5
0.5
0.5
0.5
0.489961
0.495099
0.49525
0.490672
0.489486
0.495696
0.495813
0.494676
0.486128
0.493802
0.489166
0.48921
0.480925
0.483484
0.493082
0.494249
0.5
0.499999
0.499999
0.5
0.499994
0.499995
0.499997
0.499997
0.5
0.499998
0.499998
0.5
0.499998
0.499999
0.499995
0.499997
0.5
0.499999
0.499999
0.5
0.499999
0.499999
0.5
0.5
0.5
0.5
0.5
0.5
0.5
0.5
0.5
0.5
0.5
0.5
0.5
0.5
0.5
0.5
0.5
0.5
0.5
0.470342
0.469965
0.469463
0.477992
0.470045
0.469804
0.478551
0.470217
0.471404
0.47782
0.470221
0.461007
0.460169
0.460515
0.460076
0.467486
0.475612
0.476321
0.472292
0.473264
0.476248
0.466518
0.5
0.5
0.5
0.5
0.5
0.5
0.5
0.5
0.5
0.5
0.5
0.5
0.5
0.5
0.5
0.5
0.5
0.5
0.5
0.5
0.5
0.5
0.5
0.5
0.5
0.5
0.5
0.5
0.5
0.5
0.5
0.5
0.5
0.5
0.5
0.5
0.5
0.5
0.5
0.5
0.5
0.5
0.5
0.5
0.5
0.5
0.5
0.5
0.5
0.5
0.444686
0.43608
0.447754
0.436791
0.442852
0.459536
0.453855
0.461716
0.459537
0.470265
0.478899
0.477923
0.459094
0.47187
0.479699
0.469206
0.467698
0.498753
0.498645
0.49973
0.499735
0.499744
0.499767
0.498816
0.498951
0.498897
0.498889
0.499651
0.499527
0.499042
0.499746
0.49937
0.499425
0.499655
0.499559
0.499442
0.499694
0.499692
0.49952
0.494831
0.495104
0.49608
0.49554
0.495459
0.497239
0.497768
0.495598
0.495957
0.498689
0.498446
0.498102
0.497417
0.498356
0.498881
0.498526
0.498109
0.49888
0.449055
0.46598
0.473889
0.469921
0.475921
0.470241
0.445461
0.456314
0.465204
0.458229
0.472566
0.472799
0.463208
0.471304
0.438321
0.456627
0.458033
0.5
0.5
0.5
0.5
0.5
0.5
0.5
0.5
0.5
0.5
0.498087
0.499167
0.497253
0.497231
0.499801
0.499317
0.497915
0.497811
0.497849
0.498003
0.498579
0.49944
0.498188
0.499842
0.499646
0.498592
0.499441
0.499495
0.5
0.5
0.5
0.5
0.5
0.5
0.5
0.5
0.5
0.5
0.5
0.5
0.5
0.49938
0.49938
0.49939
0.499388
0.498527
0.499214
0.49921
0.499274
0.497231
0.497239
0.498454
0.498521
0.498846
0.498472
0.499645
0.499914
0.499092
0.499746
0.499944
0.499742
0.499298
0.499634
0.499864
0.499702
0.499861
0.499628
0.499518
0.49987
0.499301
0.316123
0.329245
0.314123
0.301939
0.329672
0.31799
0.297893
0.330163
0.292188
0.298237
0.284501
0.31552
0.340977
0.331974
0.324068
0.354204
0.346783
0.313183
0.5
0.5
0.5
0.5
0.5
0.5
0.5
0.5
0.5
0.5
0.5
0.5
0.5
0.5
0.5
0.5
0.5
0.5
0.5
0.5
0.5
0.5
0.5
0.5
0.5
0.5
0.5
0.5
0.5
0.5
0.5
0.5
0.403216
0.387941
0.380693
0.376879
0.389713
0.375907
0.365887
0.386097
0.388655
0.363911
0.349206
0.348822
0.353813
0.376064
0.382939
0.356069
0.346201
0.374314
0.5
0.5
0.5
0.5
0.5
0.5
0.5
0.5
0.5
0.5
0.5
0.5
0.5
0.5
0.5
0.5
0.5
0.5
0.5
0.499947
0.499945
0.499971
0.499966
0.499923
0.49992
0.499878
0.499872
0.499896
0.499899
0.499913
0.499925
0.499948
0.499949
0.499881
0.49988
0.499871
0.499916
0.5
0.5
0.5
0.5
0.5
0.5
0.5
0.5
0.5
0.5
0.5
0.5
0.5
0.5
0.5
0.5
0.5
0.5
0.5
0.5
0.5
0.5
0.5
0.5
0.5
0.5
0.5
0.5
0.5
0.5
0.5
0.5
0.5
0.5
0.5
0.5
0.5
0.5
0.5
0.5
0.5
0.5
0.5
0.5
0.5
0.5
0.5
0.5
0.5
0.5
0.5
0.5
0.5
0.5
0.5
0.5
0.5
0.5
0.5
0.5
0.5
0.5
0.5
0.5
0.5
0.5
0.5
0.5
0.5
0.5
0.5
0.5
0.5
0.5
0.5
0.5
0.5
0.5
0.5
0.5
0.499976
0.499974
0.499979
0.499994
0.499991
0.499987
0.499977
0.499987
0.499982
0.499989
0.499994
0.499977
0.499989
0.499991
0.499985
0.499963
0.499957
0.49994
0.499976
0.499956
0.499967
0.499956
0.499934
0.499961
0.499935
0.499971
0.499939
0.499949
0.499992
0.499994
0.499993
0.499982
0.499972
0.5
0.5
0.5
0.5
0.5
0.5
0.5
0.5
0.5
0.5
0.5
0.5
0.5
0.5
0.5
0.495314
0.495736
0.495981
0.495988
0.494764
0.495762
0.493866
0.492757
0.493734
0.5
0.5
0.5
0.5
0.5
0.5
0.5
0.5
0.5
0.5
0.5
0.5
0.5
0.5
0.5
0.5
0.5
0.5
0.5
0.5
0.5
0.5
0.5
0.5
0.5
0.5
0.5
0.5
0.5
0.5
0.5
0.5
0.5
0.5
0.5
0.5
0.5
0.5
0.5
0.5
0.5
0.5
0.5
0.5
0.5
0.5
0.5
0.5
0.5
0.5
0.5
0.5
0.5
0.5
0.5
0.5
0.5
0.5
0.5
0.5
0.5
0.5
0.5
0.5
0.5
0.5
0.5
0.5
0.499541
0.499503
0.499414
0.499468
0.499836
0.499743
0.499839
0.49984
0.499424
0.499913
0.499747
0.49959
0.499673
0.499956
0.499972
0.499771
0.499893
0.499848
0.499943
0.499973
0.499975
0.49997
0.499971
0.499767
0.499972
0.499881
0.499999
0.499999
0.499999
0.499999
0.5
0.5
0.5
0.499996
0.499997
0.499997
0.499997
0.499998
0.499997
0.499999
0.499999
0.499999
0.499998
0.499998
0.5
0.5
0.5
0.5
0.5
0.5
0.5
0.5
0.5
0.5
0.5
0.5
0.5
0.5
0.5
0.5
0.5
0.5
0.5
0.5
0.5
0.5
0.5
0.5
0.5
0.5
0.495765
0.49686
0.496556
0.495739
0.49613
0.496594
0.496131
0.496057
0.49596
0.49564
0.495655
0.495938
0.495625
0.498772
0.499595
0.499698
0.499557
0.499407
0.498756
0.498533
0.498846
0.499683
0.499475
0.499456
0.499424
0.499527
0.499505
0.499489
0.499716
0.499902
0.499858
0.49953
0.499636
0.499914
0.499924
0.499928
0.499928
0.499933
0.499853
0.499861
0.499427
0.499805
0.499866
0.499754
0.499996
0.499998
0.499994
0.499997
0.499996
0.499999
0.499996
0.499991
0.499996
0.499999
0.499997
0.499996
0.499997
0.499991
0.464458
0.463738
0.471589
0.475714
0.46754
0.468434
0.463007
0.464342
0.468637
0.467432
0.462917
0.5
0.5
0.5
0.5
0.5
0.5
0.5
0.5
0.5
0.5
0.5
0.5
0.5
0.5
0.5
0.5
0.5
0.5
0.5
0.5
0.5
0.5
0.5
0.5
0.5
0.5
0.5
0.5
0.5
0.5
0.5
0.5
0.5
0.5
0.5
0.5
0.5
0.5
0.5
0.5
0.5
0.5
0.5
0.5
0.5
0.5
0.5
0.5
0.5
0.5
0.5
0.5
0.5
0.5
0.5
0.5
0.5
0.5
0.5
0.5
0.5
0.5
0.5
0.5
0.5
0.5
0.5
0.5
0.5
0.5
0.5
0.5
0.5
0.5
0.5
0.5
0.5
0.5
0.5
0.5
0.5
0.5
0.5
0.5
0.5
0.5
0.5
0.5
0.5
0.5
0.5
0.5
0.5
0.5
0.5
0.5
0.5
0.5
0.5
0.499914
0.499919
0.499908
0.499908
0.499968
0.499948
0.499964
0.499926
0.499994
0.499994
0.499978
0.499993
0.499987
0.499977
0.499994
0.499994
0.499968
0.499978
0.49658
0.491428
0.496114
0.495417
0.49625
0.492935
0.497935
0.498143
0.49285
0.498029
0.495032
0.491216
0.495134
0.495052
0.495029
0.496035
0.498113
0.496014
0.4943
0.498056
0.491995
0.495111
0.497012
0.498046
0.49543
0.492133
0.49224
0.499756
0.499713
0.499756
0.499812
0.499519
0.492842
0.490381
0.492604
0.497045
0.487687
0.498035
0.489593
0.446914
0.457013
0.477258
0.455125
0.443082
0.482569
0.465029
0.497469
0.463134
0.465216
0.478378
0.473507
0.462514
0.486363
0.482013
0.462643
0.461854
0.48438
0.487925
0.469863
0.473336
0.486993
0.485403
0.470256
0.46824
0.478555
0.5
0.5
0.5
0.5
0.5
0.5
0.5
0.5
0.5
0.5
0.5
0.5
0.5
0.5
0.5
0.5
0.5
0.5
0.5
0.5
0.499985
0.499983
0.49999
0.499992
0.499991
0.499993
0.499991
0.499989
0.499982
0.499987
0.499992
0.499992
0.499992
0.499992
0.499986
0.5
0.499985
0.499982
0.5
0.499999
0.499968
0.499996
0.5
0.499988
0.499983
0.499967
0.5
0.5
0.5
0.5
0.5
0.5
0.48867
0.48131
0.481876
0.465139
0.458939
0.474604
0.476761
0.495403
0.459046
0.477162
0.492916
0.491551
0.492972
0.491199
0.483883
0.496372
0.467555
0.477048
0.496785
0.491586
0.495502
0.49781
0.5
0.5
0.5
0.5
0.5
0.5
0.5
0.5
0.5
0.5
0.5
0.5
0.5
0.5
0.5
0.5
0.5
0.5
0.5
0.5
0.5
0.5
0.5
0.5
0.5
0.5
0.5
0.5
0.5
0.5
0.5
0.5
0.5
0.5
0.5
0.446598
0.433133
0.445573
0.427693
0.434677
0.435519
0.438212
0.456321
0.5
0.499999
0.5
0.5
0.5
0.5
0.5
0.499999
0.5
0.5
0.499999
0.5
0.5
0.5
0.5
0.5
0.5
0.5
0.5
0.5
0.5
0.5
0.5
0.5
0.5
0.5
0.5
0.5
0.5
0.5
0.5
0.5
0.5
0.5
0.5
0.5
0.5
0.5
0.5
0.5
0.5
0.5
0.5
0.5
0.5
0.5
0.5
0.5
0.499932
0.499955
0.499964
0.499978
0.499952
0.499967
0.499976
0.499977
0.499979
0.499982
0.499935
0.49998
0.499982
0.49998
0.499908
0.499937
0.499968
0.499977
0.499977
0.499979
0.499909
0.499977
0.5
0.5
0.5
0.5
0.5
0.5
0.5
0.5
0.5
0.5
0.5
0.5
0.5
0.5
0.5
0.5
0.425425
0.433894
0.434306
0.42797
0.424755
0.421483
0.435448
0.440008
0.437899
0.434603
0.447218
0.446537
0.426913
0.434961
0.431214
0.4398
0.422543
0.420343
0.49987
0.497463
0.49777
0.499096
0.498885
0.498819
0.496792
0.497048
0.499887
0.499887
0.498892
0.498822
0.499337
0.499779
0.499757
0.499732
0.5
0.5
0.5
0.5
0.5
0.5
0.5
0.5
0.5
0.5
0.5
0.5
0.5
0.5
0.5
0.5
0.5
0.5
0.5
0.5
0.499999
0.499999
0.499997
0.499998
0.5
0.5
0.5
0.5
0.499999
0.499999
0.5
0.5
0.5
0.5
0.5
0.5
0.499247
0.499217
0.499328
0.499121
0.499705
0.499119
0.499725
0.49912
0.499723
0.499915
0.499777
0.499882
0.499831
0.499796
0.499723
0.499803
0.499831
0.499609
0.499718
0.49991
0.499824
0.499865
0.499607
0.499704
0.499885
0.49991
0.499673
0.499765
0.49989
0.499999
0.499998
0.499993
0.499995
0.499995
0.499996
0.499996
0.499999
0.499998
0.499999
0.499999
0.499999
0.499997
0.499994
0.499994
0.499998
0.499997
0.499995
0.499975
0.49998
0.49999
0.499988
0.499978
0.499986
0.499972
0.49998
0.499983
0.5
0.5
0.5
0.5
0.5
0.5
0.5
0.5
0.5
0.499998
0.499998
0.5
0.5
0.5
0.5
0.5
0.5
0.5
0.5
0.5
0.5
0.5
0.5
0.5
0.5
0.5
0.5
0.5
0.5
0.5
0.5
0.5
0.5
0.5
0.5
0.5
0.5
0.5
0.5
0.5
0.5
0.5
0.5
0.5
0.5
0.5
0.5
0.5
0.5
0.5
0.5
0.499641
0.499476
0.49939
0.499643
0.499896
0.499897
0.499913
0.499928
0.499531
0.499808
0.499878
0.499841
0.499886
0.499808
0.49986
0.5
0.5
0.5
0.5
0.5
0.5
0.5
0.5
0.5
0.5
0.5
0.5
0.5
0.5
0.5
0.5
0.5
0.486638
0.486253
0.488079
0.488568
0.493497
0.493323
0.489937
0.489673
0.494774
0.495419
0.488016
0.494292
0.494955
0.493122
0.495036
0.494326
0.49481
0.495257
0.495976
0.496573
0.496669
0.495778
0.489923
0.488823
0.479532
0.482033
0.481597
0.476107
0.49031
0.489978
0.488707
0.488253
0.490413
0.485688
0.47821
0.480121
0.47982
0.5
0.5
0.5
0.5
0.5
0.5
0.5
0.5
0.5
0.5
0.5
0.5
0.5
0.5
0.5
0.5
0.499915
0.499891
0.499958
0.499935
0.499914
0.499825
0.499847
0.499845
0.499886
0.499924
0.499938
0.499857
0.499963
0.499953
0.499848
0.49993
0.499928
0.499932
0.5
0.5
0.5
0.5
0.5
0.5
0.5
0.5
0.5
0.5
0.5
0.5
0.5
0.5
0.5
0.5
0.5
0.5
0.5
0.5
0.5
0.5
0.5
0.5
0.5
0.5
0.5
0.5
0.5
0.5
0.5
0.5
0.5
0.5
0.5
0.5
0.5
0.5
0.5
0.5
0.5
0.5
0.5
0.5
0.5
0.5
0.5
0.499921
0.499924
0.499923
0.499931
0.499549
0.499656
0.499721
0.499507
0.499522
0.499881
0.499838
0.499921
0.499928
0.499601
0.499822
0.499848
0.498417
0.498423
0.497688
0.497961
0.497985
0.496697
0.496675
0.494729
0.494765
0.497427
0.495487
0.495459
0.494735
0.5
0.5
0.5
0.5
0.5
0.5
0.5
0.5
0.5
0.5
0.5
0.5
0.5
0.5
0.5
0.499953
0.499967
0.499984
0.499963
0.5
0.5
0.5
0.5
0.5
0.5
0.5
0.5
0.5
0.5
0.499992
0.5
0.5
0.5
0.5
0.5
0.5
0.5
0.5
0.5
0.5
0.5
0.5
0.5
0.5
0.5
0.5
0.5
0.499835
0.49982
0.499749
0.49975
0.499854
0.499883
0.499818
0.499742
0.499732
0.499797
0.499671
0.499626
0.499849
0.499727
0.49962
0.499732
0.499682
0.499564
0.436276
0.431194
0.415606
0.417269
0.436448
0.431197
0.436037
0.412723
0.415598
0.420686
0.415782
0.417944
0.436136
0.43317
0.431569
0.422462
0.416094
0.413421
0.406598
0.416471
0.499975
0.499963
0.499975
0.499971
0.499978
0.496048
0.496022
0.496003
0.495962
0.497689
0.497709
0.497994
0.498102
0.494605
0.495077
0.495212
0.496735
0.49779
0.496971
0.499599
0.499605
0.499885
0.499896
0.499594
0.499598
0.49989
0.499875
0.499902
0.499726
0.499111
0.5
0.5
0.5
0.5
0.5
0.5
0.5
0.5
0.5
0.5
0.5
0.499894
0.499885
0.499899
0.499896
0.4999
0.499894
0.499883
0.499907
0.499893
0.499883
0.499884
0.499876
0.499948
0.499949
0.499912
0.5
0.5
0.5
0.5
0.5
0.5
0.5
0.5
0.5
0.5
0.5
0.5
0.5
0.5
0.5
0.5
0.5
0.5
0.5
0.5
0.5
0.499978
0.499978
0.499982
0.499982
0.499985
0.499989
0.5
0.5
0.5
0.5
0.5
0.5
0.5
0.499996
0.5
0.499999
0.499997
0.5
0.5
0.5
0.5
0.5
0.5
0.5
0.5
0.5
0.5
0.5
0.5
0.5
0.5
0.5
0.5
0.5
0.5
0.5
0.5
0.5
0.5
0.5
0.5
0.5
0.5
0.5
0.5
0.5
0.5
0.5
0.5
0.5
0.5
0.499998
0.499999
0.499999
0.499999
0.499996
0.499996
0.5
0.499996
0.499996
0.5
0.5
0.499996
0.499996
0.5
0.5
0.5
0.5
0.5
0.5
0.5
0.5
0.5
0.5
0.5
0.5
0.499373
0.499272
0.498377
0.499603
0.499192
0.498884
0.499131
0.498447
0.49836
0.498825
0.499086
0.499346
0.499203
0.499598
0.499191
0.5
0.5
0.5
0.5
0.5
0.5
0.5
0.5
0.5
0.5
0.5
0.5
0.5
0.5
0.5
0.5
0.5
0.5
0.499905
0.499876
0.499931
0.49993
0.499939
0.499809
0.499758
0.499794
0.49994
0.499934
0.499875
0.499979
0.499965
0.499795
0.499858
0.499766
0.499771
0.499734
0.499981
0.499965
0.49998
0.5
0.5
0.5
0.5
0.5
0.5
0.5
0.5
0.5
0.5
0.5
0.5
0.5
0.5
0.5
0.5
0.5
0.5
0.5
0.5
0.5
0.5
0.5
0.5
0.5
0.5
0.5
0.5
0.5
0.5
0.5
0.5
0.5
0.5
0.5
0.5
0.5
0.5
0.5
0.5
0.391756
0.338789
0.414028
0.407792
0.332603
0.340317
0.344599
0.381236
0.371617
0.371637
0.357993
0.388635
0.340808
0.349202
0.328197
0.341336
0.351328
0.497166
0.496646
0.496853
0.497199
0.496252
0.494994
0.496154
0.495089
0.497088
0.495703
0.496271
0.494463
0.496433
0.495155
0.494122
0.5
0.5
0.5
0.5
0.5
0.5
0.5
0.5
0.5
0.5
0.5
0.5
0.5
0.5
0.5
0.5
0.5
0.5
0.5
0.5
0.5
0.5
0.5
0.5
0.5
0.5
0.5
0.5
0.5
0.5
0.5
0.5
0.5
0.5
0.5
0.5
0.5
0.5
0.5
0.5
0.5
0.5
0.5
0.5
0.499998
0.499651
0.499727
0.499759
0.499998
0.499942
0.499998
0.499997
0.499977
0.499994
0.499995
0.499994
0.499994
0.499994
0.499994
0.499987
0.499979
0.499979
0.499971
0.499972
0.499985
0.499986
0.499978
0.499993
0.499979
0.49998
0.499991
0.5
0.5
0.5
0.5
0.5
0.5
0.5
0.5
0.5
0.5
0.5
0.5
0.5
0.5
0.5
0.5
0.5
0.5
0.5
0.5
0.5
0.5
0.5
0.5
0.5
0.5
0.5
0.5
0.5
0.5
0.5
0.499986
0.499983
0.499974
0.499976
0.499971
0.499975
0.499985
0.499974
0.499979
0.499973
0.5
0.5
0.5
0.5
0.5
0.5
0.5
0.5
0.5
0.5
0.5
0.5
0.5
0.5
0.5
0.5
0.5
0.5
0.5
0.5
0.5
0.5
0.5
0.5
0.5
0.5
0.5
0.5
0.5
0.5
0.5
0.5
0.5
0.5
0.5
0.5
0.5
0.5
0.5
0.5
0.5
0.5
0.5
0.5
0.5
0.5
0.5
0.5
0.5
0.5
0.5
0.5
0.5
0.5
0.5
0.5
0.5
0.5
0.5
0.5
0.5
0.5
0.5
0.5
0.5
0.5
0.5
0.5
0.5
0.5
0.5
0.5
0.5
0.5
0.5
0.5
0.5
0.5
0.5
0.5
0.5
0.5
0.5
0.5
0.5
0.5
0.5
0.5
0.5
0.5
0.5
0.5
0.5
0.5
0.5
0.5
0.5
0.5
0.5
0.5
0.5
0.5
0.5
0.5
0.5
0.5
0.5
0.5
0.5
0.5
0.5
0.5
0.5
0.5
0.5
0.5
0.5
0.5
0.5
0.5
0.5
0.5
0.5
0.5
0.5
0.5
0.5
0.5
0.5
0.5
0.499998
0.499997
0.499993
0.499992
0.5
0.499997
0.5
0.499999
0.499998
0.5
0.5
0.5
0.5
0.5
0.5
0.5
0.5
0.5
0.5
0.5
0.5
0.5
0.5
0.5
0.5
0.5
0.5
0.5
0.5
0.5
0.5
0.5
0.5
0.5
0.5
0.5
0.5
0.5
0.5
0.5
0.5
0.5
0.5
0.5
0.5
0.5
0.5
0.5
0.5
0.5
0.5
0.5
0.5
0.5
0.5
0.5
0.5
0.5
0.5
0.5
0.5
0.5
0.5
0.5
0.5
0.5
0.5
0.5
0.5
0.5
0.5
0.5
0.5
0.5
0.5
0.5
0.5
0.5
0.5
0.5
0.5
0.5
0.5
0.5
0.5
0.5
0.5
0.5
0.5
0.5
0.5
0.5
0.5
0.5
0.5
0.5
0.5
0.5
0.5
0.5
0.5
0.5
0.5
0.5
0.5
0.5
0.5
0.5
0.5
0.5
0.5
0.5
0.5
0.5
0.5
0.5
0.5
0.5
0.5
0.5
0.5
0.5
0.5
0.5
0.5
0.5
0.499881
0.499891
0.499934
0.499946
0.499907
0.499971
0.499967
0.499929
0.499975
0.499967
0.499938
0.499936
0.49993
0.499909
0.499886
0.499899
0.499973
0.499939
0.499971
0.499971
0.499968
0.499911
0.499938
0.49989
0.499935
0.499945
0.499934
0.499948
0.499949
0.499937
0.499938
0.499952
0.499949
0.499944
0.499932
0.499939
0.499942
0.5
0.5
0.5
0.5
0.5
0.5
0.5
0.5
0.5
0.5
0.5
0.5
0.5
0.5
0.5
0.5
0.499999
0.5
0.5
0.499998
0.499999
0.499998
0.499999
0.5
0.5
0.499998
0.499998
0.499999
0.499998
0.499999
0.5
0.5
0.499999
0.5
0.5
0.5
0.5
0.5
0.499999
0.5
0.5
0.5
0.5
0.5
0.5
0.5
0.5
0.499999
0.5
0.499999
0.499999
0.499999
0.499999
0.499999
0.499999
0.499999
0.499997
0.499998
0.499998
0.499997
0.499999
0.499999
0.499999
0.499999
0.499998
0.499999
0.499999
0.499999
0.499999
0.499999
0.5
0.5
0.5
0.5
0.5
0.5
0.5
0.5
0.5
0.5
0.5
0.5
0.5
0.5
0.5
0.5
0.5
0.5
0.5
0.5
0.5
0.5
0.5
0.5
0.5
0.5
0.5
0.5
0.5
0.5
0.5
0.5
0.5
0.5
0.5
0.5
0.5
0.441884
0.440384
0.442832
0.429242
0.426415
0.426891
0.420162
0.420624
0.418913
0.419377
0.423319
0.416747
0.475473
0.47387
0.49088
0.490388
0.462429
0.455393
0.494298
0.494031
0.494501
0.494512
0.49483
0.490947
0.491424
0.491645
0.356821
0.348488
0.385944
0.407572
0.446696
0.443962
0.447939
0.444258
0.446855
0.415302
0.429674
0.446608
0.43869
0.443923
0.425504
0.441683
0.446329
0.441692
0.188876
0.208873
0.244256
0.266945
0.253748
0.205866
0.286232
0.295549
0.288555
0.179271
0.180408
0.173395
0.202043
0.196552
0.195833
0.245071
0.2584
0.189265
0.5
0.5
0.5
0.5
0.5
0.5
0.5
0.5
0.5
0.5
0.5
0.5
0.499999
0.5
0.5
0.5
0.499999
0.499999
0.499999
0.499999
0.5
0.499999
0.5
0.5
0.499999
0.499999
0.5
0.5
0.5
0.5
0.5
0.5
0.499999
0.5
0.5
0.5
0.499999
0.5
0.499999
0.5
0.5
0.499999
0.499999
0.5
0.499999
0.499986
0.499991
0.499991
0.499989
0.499986
0.499998
0.499998
0.499994
0.5
0.499996
0.499995
0.499998
0.499999
0.5
0.5
0.5
0.5
0.5
0.5
0.5
0.5
0.5
0.5
0.5
0.5
0.5
0.5
0.5
0.350592
0.35226
0.349428
0.395071
0.392966
0.37551
0.374163
0.390997
0.392699
0.378319
0.400544
0.402064
0.44165
0.453109
0.481984
0.481687
0.452097
0.454177
0.440031
0.470246
0.470662
0.452883
0.440395
0.5
0.5
0.5
0.5
0.5
0.5
0.5
0.5
0.5
0.5
0.5
0.5
0.5
0.5
0.497779
0.495222
0.495377
0.493799
0.48281
0.487952
0.480025
0.494513
0.497502
0.498402
0.49145
0.483242
0.498372
0.493036
0.48677
0.490112
0.486025
0.486068
0.490328
0.494274
0.496005
0.489759
0.49658
0.497425
0.493793
0.492451
0.492632
0.49699
0.495959
0.493304
0.494422
0.495291
0.49643
0.49657
0.496996
0.498784
0.498559
0.498226
0.498646
0.498239
0.498743
0.498883
0.499089
0.499095
0.498223
0.499067
0.498376
0.498714
0.498245
0.495135
0.49634
0.495549
0.493575
0.489141
0.489236
0.494466
0.491127
0.491682
0.417387
0.417478
0.419976
0.397191
0.400429
0.413939
0.39318
0.393626
0.409016
0.411039
0.409295
0.401293
0.496114
0.496431
0.495662
0.495621
0.494623
0.496084
0.49443
0.494145
0.493644
0.495057
0.494071
0.49433
0.493677
0.49409
0.493583
0.493581
0.499999
0.499999
0.5
0.499999
0.5
0.499999
0.5
0.5
0.499999
0.5
0.5
0.5
0.5
0.5
0.5
0.499999
0.5
0.5
0.487718
0.487879
0.493168
0.395031
0.499973
0.499896
0.499889
0.492639
0.49561
0.42893
0.330936
0.49939
0.486023
0.49999
0.5
0.5
0.5
0.5
0.5
0.5
0.5
0.5
0.5
0.49998
0.5
0.487619
0.5
0.493653
0.499879
0.499847
0.486087
0.486332
0.497244
0.486385
0.486166
0.496144
0.278676
0.387435
0.416714
0.484506
0.496316
0.346308
0.407353
0.499818
0.49982
0.353655
0.399532
0.483372
0.459933
0.138635
0.5
0.499866
0.5
0.499902
0.499945
0.202546
0.5
0.221898
0.428737
0.499607
0.499992
0.499999
0.499999
0.499999
0.437442
0.486148
0.5
0.499999
0.399709
0.5
0.499999
0.38703
0.499998
0.499997
0.5
0.367642
0.499997
0.5
0.357642
0.5
0.497953
0.5
0.5
0.5
0.5
0.5
0.5
0.499161
0.499999
0.499999
0.5
0.499997
0.5
0.499999
0.5
0.5
0.5
0.499995
0.5
0.5
0.482341
0.492983
0.5
0.5
0.5
0.499926
0.5
0.41854
0.499998
0.499996
0.486137
0.41802
0.5
0.499992
0.486653
0.414326
0.499989
0.5
0.5
0.486855
0.5
0.499988
0.499982
0.424506
0.5
0.5
0.5
0.5
0.480534
0.5
0.499861
0.46002
0.5
0.5
0.5
0.5
0.5
0.5
0.5
0.499977
0.5
0.499875
0.5
0.5
0.5
0.499922
0.5
0.5
0.499915
0.5
0.499903
0.5
0.5
0.499898
0.5
0.5
0.5
0.5
0.5
0.5
0.5
0.5
0.5
0.5
0.5
0.5
0.5
0.5
0.5
0.5
0.5
0.5
0.5
0.5
0.5
0.5
0.5
0.5
0.5
0.5
0.5
0.5
0.5
0.5
0.5
0.5
0.5
0.5
0.5
0.5
0.5
0.5
0.5
0.5
0.5
0.5
0.5
0.5
0.5
0.5
0.5
0.5
0.5
0.5
0.5
0.5
0.5
0.5
0.5
0.5
0.5
0.5
0.5
0.5
0.5
0.5
0.5
0.5
0.5
0.5
0.5
0.5
0.5
0.5
0.5
0.5
0.5
0.5
0.5
0.5
0.499999
0.5
0.5
0.5
0.5
0.5
0.5
0.5
0.5
0.5
0.5
0.5
0.5
0.5
0.5
0.5
0.5
0.5
0.5
0.5
0.5
0.5
0.5
0.5
0.5
0.5
0.5
0.5
0.5
0.5
0.5
0.5
0.5
0.5
0.5
0.5
0.5
0.5
0.5
0.5
0.5
0.5
0.5
0.5
0.5
0.5
0.5
0.5
0.5
0.5
0.5
0.5
0.5
0.5
0.499975
0.499999
0.5
0.5
0.5
0.5
0.5
0.5
0.5
0.5
0.5
0.5
0.5
0.499999
0.5
0.499999
0.498475
0.498257
0.491065
0.5
0.5
0.5
0.5
0.5
0.5
0.5
0.5
0.5
0.499999
0.5
0.499999
0.499992
0.26412
0.269795
0.229125
0.5
0.5
0.5
0.5
0.5
0.5
0.5
0.499998
0.499999
0.499998
0.499999
0.499998
0.499998
0.499999
0.499952
0.499953
0.499969
0.498728
0.497971
0.496127
0.498541
0.49765
0.457328
0.47671
0.432102
0.496312
0.495021
0.495285
0.472786
0.499906
0.431617
0.462346
0.359145
0.34397
0.499896
0.499919
0.5
0.5
0.5
0.5
0.5
0.5
0.5
0.5
0.5
0.421236
0.462753
0.49999
0.499965