/*--------------------------------*- C++ -*----------------------------------*\
  =========                 |
  \\      /  F ield         | OpenFOAM: The Open Source CFD Toolbox
   \\    /   O peration     | Website:  https://openfoam.org
    \\  /    A nd           | Version:  10
     \\/     M anipulation  |
\*---------------------------------------------------------------------------*/
FoamFile
{
    format      ascii;
    class       volScalarField;
    location    "17";
    object      eff_dif;
}
// * * * * * * * * * * * * * * * * * * * * * * * * * * * * * * * * * * * * * //

dimensions      [0 2 -1 0 0 0 0];

internalField   nonuniform List<scalar> 
75457
(
-0.0365727
-0.033051
-0.0290934
-0.0263812
-0.0215656
-0.0232149
-0.0322937
-0.0321546
-0.0207942
-0.015221
-0.0192061
-0.0209289
-0.0205212
-0.0181326
-0.0042135
-0.00465641
-0.00436513
-0.00456182
-0.00499807
-0.00451154
-0.00404585
-0.00468226
-0.00470857
-0.00496767
-0.00475423
-0.00510902
-0.0048652
-0.00119182
-0.00122871
-0.000668103
-0.000311194
-0.000538835
-0.000635172
-0.000799495
-0.000177875
-0.00123698
-0.00113739
-0.00130498
-0.00144087
-0.000480165
-0.000759549
-0.000457825
-0.000950347
-0.0107269
-0.0106761
-0.00963645
-0.00980918
-0.010304
-0.00582548
-0.00654364
-0.00688462
-0.00620048
-0.00638888
-0.00659523
-0.00692771
-0.00691545
-0.0067304
-0.00696504
-0.00616776
-0.00652324
-0.00637602
-0.00609387
0.0311632
0.0314312
0.0311699
0.0315028
0.0317385
0.0317631
0.031415
0.0314543
0.0317247
0.0315127
0.0312428
0.0315026
0.0314907
0.0311721
0.0313799
-0.010162
-0.0113577
-0.00953892
-0.0114472
-0.013071
-0.00706922
-0.00735835
-0.00937293
-0.0100354
-0.00994988
-0.00984615
-0.00732837
-0.00850105
-0.00721569
-0.00718239
-0.0081784
-0.00715428
-0.0070708
-0.00722597
-0.00725723
-0.00760178
-0.00719418
-0.00703159
-0.00820771
-0.0074375
0.0318167
0.031706
0.0319671
0.0319834
0.0318503
0.0317009
0.0316202
0.0320706
0.0320725
0.0316875
0.0316976
0.0224321
0.023093
0.0255563
0.02513
0.0224951
0.0240731
0.0241063
0.0235764
0.0239327
0.0256213
0.0254053
0.0259484
0.0264878
0.0252416
0.0246806
0.023484
0.0259026
0.0248999
0.013958
0.0139213
0.0133405
0.0142276
0.0138217
0.0153507
0.0150353
0.0149241
0.014914
0.00802714
0.00756849
0.00813874
0.00767813
0.00710975
0.00762066
0.00764789
0.0066964
-0.00713226
-0.00717448
-0.00656061
-0.00676201
-0.00715452
-0.00680237
-0.0065089
-0.00601226
-0.00447281
-0.00451453
-0.00606506
-0.00578832
-0.00531695
-0.00602656
-0.00489832
0.0165483
0.0181497
0.0183912
0.0177293
0.0181495
0.014432
0.015817
0.0173782
0.0163873
0.017348
0.0146705
0.013356
0.0139477
-0.00952429
-0.00999848
-0.00986739
-0.0100779
-0.0098452
-0.00997801
-0.00930259
-0.0100001
-0.00984292
-0.0100872
-0.0100739
-0.00990947
-0.009835
-0.00995264
-0.00880604
-0.00742933
-0.00992357
-0.00732402
-0.00764507
-0.00923545
0.0120137
0.0127839
0.0114322
0.0122207
0.0104203
0.0112199
0.0136047
0.0133045
0.0124094
0.00964283
0.00961061
-0.00778934
-0.00763568
-0.00804763
-0.00800656
-0.00795688
-0.00788386
-0.00772092
-0.00759769
-0.00720389
-0.00803125
-0.00778334
-0.00756232
-0.0079181
-0.00752763
0.00644844
0.00552575
0.00591113
0.00423825
0.00478223
0.00550503
0.00538177
0.00663254
0.00620426
0.00530618
0.00468625
0.00405997
0.00627257
0.00470522
-0.00721333
-0.00728595
-0.00700162
-0.0069727
-0.00727293
-0.00720801
-0.00729631
-0.00725401
-0.00743318
-0.00696685
-0.00720886
-0.00670384
-0.00733097
-0.00740024
-0.00715003
-0.00711753
-0.00727035
-0.00969558
-0.009494
-0.00946305
-0.00942499
-0.0106765
-0.00917229
-0.00906975
-0.0084826
-0.00934748
-0.00982298
-0.00881745
-0.00949905
-0.0102191
-0.010042
-0.0100656
-0.010256
-0.00957537
-0.00998768
-0.0103146
-0.0100336
-0.00956972
-0.0102202
-0.0099635
-0.00973222
-0.00983812
-0.00432288
-0.00408455
-0.0043733
-0.00383829
-0.00385832
-0.00372378
-0.00352743
-0.0034904
-0.0034606
-0.00393513
-0.00423487
-0.00410962
-0.00338571
-0.00380211
-0.00374033
-0.000510643
-0.00040649
-0.000246941
-0.000475008
-0.000233207
-0.00041621
-0.000666235
-0.000901865
-0.000149383
-5.34084e-05
4.32973e-05
2.54399e-06
-8.79701e-05
0.000172112
0.00031483
0.000257005
0.000133903
0.000103912
0.000163343
0.000117737
-2.99802e-05
-4.64419e-05
-0.00546484
-0.00589385
-0.00509694
-0.00521742
-0.00543669
-0.0054178
-0.0058948
-0.00586938
-0.00615288
-0.0064282
-0.00596785
-0.00752183
-0.0076576
-0.00779438
-0.00779507
-0.00774957
-0.00748089
-0.00751433
-0.00788351
-0.00815383
-0.00784639
-0.00810424
-0.00719198
-0.00747773
-0.00768631
-0.00778222
-0.00762134
-0.00773702
-0.0143432
-0.0133893
-0.0130902
-0.0146585
-0.0168573
-0.0161346
-0.016131
-0.015965
-0.0155209
-0.015162
-0.0163874
-0.00449546
-0.00471756
-0.00543903
-0.00523133
-0.00490378
-0.00532637
-0.00497223
-0.00574738
-0.00540235
-0.00523519
-0.00473313
-0.000238515
-0.000112324
-0.000376969
-0.000447758
-0.000125731
-0.000119575
-0.000433506
-0.00016785
-0.000542103
-0.00057833
-0.000641161
-0.000241286
-0.00047646
-0.000960834
-0.000952812
-0.00642385
-0.00550815
-0.00713836
-0.00649836
-0.00633899
-0.00766019
-0.00799863
-0.00766622
-0.00794301
-0.00801778
-0.00768264
-0.00840827
0.0499634
0.0547424
0.0433934
0.0460256
0.0488199
0.0508669
0.0505291
0.05336
0.0459793
0.0503799
0.0486254
0.0496302
0.0457389
0.050189
0.0444717
0.0459525
0.0478598
0.0429178
0.0347712
0.0343132
0.0350734
0.035804
0.0366982
0.0376656
0.0349867
0.0356167
0.0380862
0.0415308
0.038277
0.0384874
0.0401925
0.0261329
0.0233653
0.0208197
0.0224486
0.0270045
0.023718
0.0222718
0.0236829
0.0233602
0.0214643
0.0286909
0.0286768
0.0218408
0.0233721
0.0208484
0.0269986
0.0291171
0.0291905
0.0252174
0.0251813
0.025853
0.0271362
-0.00897144
-0.009325
-0.00955079
-0.00953288
-0.00962885
-0.0090454
-0.00911296
-0.00923874
-0.00939907
-0.00905896
-0.00948094
-0.00906246
-0.00920473
-0.00915719
-0.00929327
-0.00925584
-0.0261872
-0.0289378
-0.0155881
-0.0241258
-0.0138463
-0.0208324
-0.018822
-0.0157796
-0.0139144
-0.0189108
-0.0331643
-0.0284269
-0.018668
-0.0259448
-0.0140991
-0.0162539
0.00220646
0.00204808
0.00220991
0.0030568
0.00343258
0.00404375
0.00185509
0.00152419
0.00318976
0.00316282
0.00405006
0.00369793
0.00342283
0.00334694
0.00318347
0.00252511
0.00178731
0.00260233
0.0339053
0.0379539
0.0365198
0.0331133
0.0344388
0.037196
0.0407195
0.0397976
0.0347041
0.0406772
0.0423739
0.040635
0.0367615
0.0335299
0.0343229
0.0353475
0.0270139
0.0263687
0.0268704
0.0266435
0.0258037
0.0275783
0.0281539
0.0275387
0.0269078
0.0278513
0.0272929
0.0264761
0.027327
0.0257548
0.0264358
0.0279605
0.0284379
0.0125441
0.0123942
0.0121078
0.0124741
0.0124659
0.0125188
0.0126142
0.0126859
0.0127181
0.0125705
0.0122068
0.0122791
0.0127863
0.0124442
0.0125485
0.0118449
0.0118473
-0.00553586
-0.00640514
-0.00801527
-0.00717593
-0.00605683
-0.00630666
-0.00570018
-0.00580081
-0.00651819
-0.00609276
-0.00775763
-0.00799264
-0.00683347
-0.00517088
-0.00745031
-0.00650815
-0.00660316
-0.00734102
-0.00440487
-0.00445824
-0.00428687
-0.00423733
-0.00373146
-0.00394587
-0.00417806
-0.00415661
-0.00364452
-0.00382469
-0.00395792
-0.0036348
-0.00348919
-0.00392904
-0.00669402
-0.00624344
-0.00719129
-0.00796133
-0.00800132
-0.00741879
-0.0071293
-0.00695789
-0.00682443
-0.00787692
-0.00786972
-0.00772354
-0.00716044
-0.00663638
-0.00692259
-0.00769163
-0.00785599
-0.00800911
0.0215365
0.0173101
0.018107
0.0248608
0.0211979
0.0153465
0.0182436
0.0184181
0.0149216
0.0232472
0.0184001
0.0155535
-0.00868122
-0.00847428
-0.00816615
-0.00814043
-0.00847604
-0.00818399
-0.00695958
-0.00730967
-0.00823694
-0.00830943
-0.00820119
-0.00736831
-0.0073193
-0.00795724
-0.00808215
-0.00788157
-0.00568441
-0.00624878
-0.00521671
-0.00566283
-0.00684934
-0.00674816
-0.00675661
-0.00560047
-0.00543357
-0.00537717
-0.00530553
-0.00631863
-0.00684684
-0.00556072
-0.00515317
-0.00616689
0.0048322
0.00406979
0.00340933
0.00663864
0.00752161
0.00509055
0.00580069
0.00257715
0.00413955
0.00484731
0.00642473
0.00533985
0.0063947
0.00721567
0.00694751
0.00386681
0.00398127
0.00526758
0.003369
-0.00297367
-0.00203232
-0.0028791
-0.00441621
-0.00349621
-0.00249311
-0.00415954
-0.00372235
-0.00293636
-0.0032483
-0.00293226
-0.00418688
-0.00303804
-0.00266607
-0.00167778
-0.00133804
-0.00146806
-0.00214351
-0.00169342
-0.00193512
-0.00169351
-0.00163001
-0.00217555
-0.00147261
-0.00194437
-0.00178176
-0.00243081
-0.00137443
-0.00140995
-0.00148073
-0.00125435
-0.00184266
-0.0036219
-0.00425144
-0.00329597
-0.00190387
-0.00237933
-0.00607013
-0.00355464
-0.00320504
-0.0032263
-0.00430228
-0.00574272
-0.00863516
-0.00893477
-0.00905688
-0.00870736
-0.0097806
-0.0101121
-0.00988574
-0.0107867
-0.00805966
-0.00771349
-0.0102815
-0.0111811
-0.011007
-0.0099523
-0.00969275
-0.0109793
-0.0099875
-0.00967761
-0.0103679
-0.0102489
-0.00940998
-0.00956348
-0.00963874
-0.00933406
-0.00953053
-0.0092762
-0.00949662
-0.0095275
-0.00930468
-0.00911893
-0.00926801
-0.00949902
-0.00927147
-0.00934956
-0.0092497
-0.00938166
-0.00932003
-0.00929658
-0.00767449
-0.00822488
-0.00929026
-0.00914247
-0.00823038
-0.00874154
-0.00918797
-0.00907685
-0.00836496
-0.0089916
-0.00830205
-0.00497041
-0.00559831
-0.00389361
-0.00363383
-0.00405072
-0.0034247
-0.00362688
-0.00291722
-0.00390058
-0.00408839
-0.0037263
-0.00376434
-0.00348901
-0.00309036
-0.00289335
-0.0028288
-0.00316099
-0.00308189
-0.00250127
-0.00303071
-0.00281234
-0.00317158
-0.00314403
-0.00273755
-0.00275248
-0.00286829
-0.00251345
-0.00282024
-0.00264434
-0.00245686
-0.00271113
-0.00238304
-0.00263858
-0.00278127
-0.00247478
-0.00594143
-0.00618431
-0.00602644
-0.0059956
-0.00563584
-0.00510681
-0.00599803
-0.00486352
-0.00565291
-0.00446857
-0.00522613
-0.00562105
-0.00576191
-0.00539032
-0.00517223
-0.00656355
-0.00555993
-0.00501235
-0.00478192
-0.00475515
-0.00754263
-0.00775624
-0.00799077
-0.00791263
-0.00702995
-0.00728002
-0.00822558
-0.00808279
-0.00772449
-0.00684024
-0.00706714
-0.00699798
-0.0067941
-0.00741781
-0.00726364
-0.00769632
-0.00660123
-0.00691944
-0.00748304
-0.00769008
-0.00676411
-0.00702913
-0.00722098
-0.00818153
-0.00707122
-0.00779159
-0.00747522
-0.00878326
-0.00696891
-0.00676408
-0.00702131
-0.00765705
-0.00816494
-0.00764711
-0.00817241
-0.00721923
-0.00704834
-0.0074529
-0.00723835
-0.00669777
-0.00627186
-0.00752487
-0.00681598
-0.00765203
-0.00857072
-0.00802069
-0.0078445
-0.0073054
-0.0073908
-0.00830628
-0.00825967
-0.00891692
-0.0078762
0.0224102
0.0229587
0.0239104
0.0228778
0.0236878
0.0224409
0.0234797
0.0223075
0.0228758
0.0238801
-0.00921891
-0.00904707
-0.0087932
-0.00884661
-0.00936928
-0.0093285
-0.00886181
-0.00899596
-0.00935848
-0.00874814
-0.00915621
-0.00894454
-0.00891341
-0.00936624
-0.0089464
-0.00922095
-0.00933322
-0.00964208
-0.00909014
-0.0100041
-0.0097435
-0.00948962
-0.0101781
-0.0089783
-0.00977097
-0.00895294
-0.00875234
-0.00973687
-0.00999932
-0.00880233
-0.0097994
-0.00986499
-0.00945051
-0.0091118
-0.0101252
-0.00940647
-0.00942522
0.0119771
0.0123822
0.0130789
0.0124961
0.0121676
0.0133002
0.00986249
0.011437
0.0116654
0.0113256
0.0106195
0.0127332
0.0122017
0.0127381
0.0118488
0.0114178
-0.0128525
-0.0140048
-0.0130384
-0.0124844
-0.0126844
-0.0107204
-0.0113725
-0.0122389
-0.0127559
-0.0133834
-0.00965636
-0.0109764
-0.0121561
-0.0112854
-0.0123463
-0.0103209
-0.0100133
-0.0100632
-0.0111465
-0.0112177
-0.0119257
-0.0102008
-0.00968752
-0.00946076
-0.0106002
0.0125348
0.0115205
0.0111631
0.0112436
0.0112752
0.00980441
0.00948227
0.00890099
0.00895776
0.00951426
0.00963674
0.00872241
0.0104555
0.00957201
0.0112696
0.0113745
0.00943993
0.0105486
0.0101527
-0.00874501
-0.00874223
-0.00934699
-0.00872523
-0.0102025
-0.00896962
-0.00848062
-0.00910731
-0.00917128
-0.00880242
-0.00868908
-0.00940988
-0.00956367
-0.0100653
-0.00953896
-0.00894122
-0.00875041
-0.00970439
-0.00944534
-0.0077676
-0.00880254
-0.00818196
-0.00819123
-0.00791941
-0.00833648
-0.00789793
-0.00755967
-0.00872906
-0.00822669
-0.00833883
-0.00797498
-0.00842571
-0.00840359
-0.00853318
-0.00854669
0.021652
0.0222155
0.021526
0.0213277
0.0225676
0.0234585
0.0232477
0.0223181
0.0223319
0.0231677
0.0233424
0.0224149
0.0232909
0.0238313
0.0245095
0.0239473
-0.0111107
-0.0129211
-0.00937108
-0.00914964
-0.0142124
-0.0170654
-0.00633387
-0.00734644
-0.0099911
-0.012543
-0.00946385
-0.0100996
-0.0115668
-0.0168343
-0.0151146
-0.00786634
-0.0128006
-0.00980653
-0.0132681
-0.015641
0.0583695
0.0524123
0.0480838
0.0477484
0.0568456
0.0581411
0.0516476
0.0564555
0.0506383
0.0526362
0.0502163
0.0506648
0.0474809
0.0473459
0.0530651
0.0208514
0.0195474
0.0241709
0.0258724
0.0237124
0.0206409
0.0259931
0.0225483
0.0250024
0.0282679
0.0272126
0.0284393
0.0301624
0.0279855
-0.0142788
-0.0150137
-0.0145621
-0.01531
-0.0134202
-0.0136809
-0.0120492
-0.0109159
-0.0132471
-0.0131947
-0.0113715
-0.0109054
-0.0137082
-0.0119883
-0.0116481
-0.0122893
-0.00542865
-0.00515402
-0.00520481
-0.00535873
-0.00515643
-0.00545115
-0.0050971
-0.00543183
-0.0056008
-0.0049713
-0.0050263
-0.0049851
-0.00553928
-0.0053542
-0.00504419
-0.00522726
-0.00517356
-0.00549995
-0.00531172
-0.00987087
-0.00985139
-0.00949526
-0.0102677
-0.0103991
-0.0102312
-0.00952226
-0.0103309
-0.0102099
-0.00874716
-0.00939176
-0.00925932
-0.00965383
-0.00935821
-0.0105497
-0.010232
-0.00902688
-0.00944245
-0.00919204
-0.00928778
-0.00893821
-0.00901305
-0.00948148
-0.00895131
-0.00905393
0.0306379
0.0298057
0.0298659
0.0303166
0.0304909
0.0300945
0.0298761
0.0299129
0.0306229
0.030417
0.0304781
0.0302252
0.0303143
0.0300905
0.0304109
0.0304732
0.0304924
0.030284
0.0299325
0.0305645
-0.00653415
-0.00735043
-0.00647261
-0.00699511
-0.00647617
-0.0061587
-0.00631327
-0.00709029
-0.00609009
-0.00640164
-0.00661543
-0.00680201
-0.00452721
-0.00461682
-0.00423053
-0.00409628
-0.00391031
-0.00458803
-0.00458255
-0.00471476
-0.00449466
-0.00407543
-0.00406163
-0.00436997
-0.00439791
-0.00405113
-0.00418692
-0.00412672
-0.00430351
-0.00416187
-0.00340376
-0.00320942
-0.00346217
-0.00320777
-0.0033643
-0.00373178
-0.00379559
-0.00393951
-0.00402434
-0.00326564
-0.00373506
-0.00337076
-0.00405256
-0.00386423
-0.00358805
-0.00341241
-0.00406809
-0.00371279
-0.00334925
-0.00267432
-0.00274359
-0.00296791
-0.0021649
-0.00263115
-0.00233636
-0.00230176
-0.00319691
-0.00266143
-0.00330249
-0.00335624
-0.00241363
-0.00239047
-0.00254165
-0.00330403
-0.00333913
-0.00702676
-0.00707743
-0.00759173
-0.00761144
-0.00763228
-0.0070821
-0.00720937
-0.00800464
-0.00761198
-0.00926273
-0.00902687
-0.00909996
-0.00925307
-0.00939658
-0.00940961
-0.00923643
-0.00950868
-0.00918341
-0.00906116
-0.00938722
-0.00918213
-0.00438775
-0.00423715
-0.00442664
-0.00442518
-0.00432218
-0.00453284
-0.00447869
-0.00468862
-0.00464182
-0.00443683
-0.00491873
-0.0048748
-0.00482729
-0.0049253
-0.0047245
-0.00489997
0.0310175
0.0312215
0.0309556
0.0306932
0.030339
0.0304044
0.0299357
0.0298783
0.0301546
0.0306936
-0.00741256
-0.00713149
-0.00736563
-0.00713414
-0.00750678
-0.00738104
-0.00763071
-0.00760776
-0.00786086
-0.00783121
-0.0075953
-0.007378
-0.00760489
-0.0080233
-0.00795349
-0.007742
-0.00764767
-0.00754891
-0.00525366
-0.00553627
-0.00516691
-0.00524141
-0.00518346
-0.00517254
-0.00539255
-0.00519646
-0.0053416
-0.00574724
-0.00551199
-0.00556124
-0.00532987
-0.00551104
-0.0051099
-0.00519823
-0.00539166
-0.00519348
0.00910521
0.00848519
0.00790866
0.00888464
0.00708123
0.00651637
0.00951355
0.0089855
0.00767012
0.00920128
0.00822503
0.00730602
0.008078
0.00811224
0.0309252
0.0308238
0.0307016
0.030529
0.030978
0.0305694
0.0303888
0.0304231
0.0307308
0.0305467
0.0307211
0.0308457
0.0304168
0.0303837
0.0302727
0.0303147
0.0306943
0.0304895
0.0306366
0.0304037
0.0435721
0.0422134
0.0353708
0.0384729
0.0280148
0.0323551
0.0178375
0.0335823
0.0335517
0.0309251
0.0366634
0.0267815
0.0384378
0.0435971
0.0393854
0.0469029
0.0285154
0.0397625
0.0352617
-0.00907957
-0.00970939
-0.00598782
-0.00470808
-0.0101884
-0.0127043
-0.0123971
-0.0149082
-0.00568328
-0.00586539
-0.0169412
-0.0133795
-0.00776762
-0.0117908
-0.0137328
-0.00871327
-0.00896678
-0.0141977
-0.0111331
-0.0112893
-0.00124349
-0.00188218
-0.00178403
-0.00188857
-0.00228318
-0.00146694
-0.00281873
-0.00208776
-0.00211031
-0.00208241
-0.00198176
-0.00188305
-0.00271496
-0.00176793
-0.00284634
-0.00271661
-0.00255773
-0.00252326
-0.00178429
-0.0157615
-0.0159973
-0.0167471
-0.0160886
-0.0163221
-0.0170825
-0.0145226
-0.0156489
-0.0164768
-0.0140232
-0.0146143
-0.0149685
-0.0153659
-0.0157944
-0.0154531
-0.0159533
0.0326475
0.0325982
0.0324649
0.0325413
0.0328135
0.0328307
0.0327078
0.0327362
0.0325466
0.0324114
0.0329296
0.0327057
0.0328703
0.0328655
0.0324908
0.0324126
0.0325799
0.0327501
0.0328811
0.0324775
0.000129739
-2.17964e-05
0.000546325
0.000966512
-0.00199315
-0.00208193
-0.0025161
-0.00338206
-0.00126589
0.00014097
0.000519534
-0.00199861
-0.00234585
-0.00287976
-0.00361468
-0.00349745
-0.0011561
-0.00299157
-0.0027404
-0.00167272
0.0328094
0.0326989
0.0327819
0.0328248
0.0328142
0.0328314
0.0327542
0.0328858
0.0329492
0.0329561
0.0330229
0.0327327
0.032901
0.0328686
0.0329794
0.0329618
0.0328479
-0.0056692
-0.00566603
-0.00575547
-0.00605165
-0.00597148
-0.00571362
-0.00547305
-0.00580395
-0.00592313
-0.00623587
-0.00552852
-0.00508774
0.0308966
0.0307127
0.0312605
0.0312629
0.0310201
0.0309649
0.0306272
0.0308404
0.0310619
0.0312257
0.0312656
0.0308961
0.0307343
0.0308515
0.0306504
0.0308511
0.0306488
0.0309127
0.0309791
0.0306393
0.0308817
0.0244812
0.0240446
0.0241403
0.024556
0.0245946
0.0237606
0.0241464
0.0257856
0.0259557
0.0257433
0.0250537
0.024695
0.02433
0.0242658
0.0242952
0.024981
0.0248722
0.0248746
0.00969041
0.00994805
0.0100308
0.00961736
0.00987763
0.0105809
0.0102221
0.0102643
0.0100101
0.0111663
0.0109971
0.011243
0.0110759
0.0101463
0.009876
0.0509102
0.0458408
0.0400179
0.0414403
0.0477758
0.0458579
0.0573037
0.0426896
0.0495487
0.04445
0.0568769
0.0566733
0.0523957
0.0456689
-0.000868843
-0.000568761
-0.00103764
-0.00155209
-0.00150079
-0.0017017
-0.00093251
-0.00108036
-0.00120091
-0.000954086
-0.00169179
-0.00139701
-0.00108095
-0.000538361
-0.000720917
-0.00117232
0.0265195
0.0244682
0.0261022
0.0243069
0.0239741
0.0243613
0.0246855
0.0247395
0.0255906
0.0259947
0.0284441
0.0279353
0.0269591
0.0292632
0.0298492
0.027272
0.0283046
0.0320839
0.0320446
0.0316431
0.031742
0.0318455
0.0318973
0.0321173
0.0321541
0.0316097
0.0317265
0.0320646
0.0320926
0.0320481
0.0319271
0.031883
0.0320493
0.0318553
-0.0119695
-0.00963879
-0.00966105
-0.0128887
-0.00882248
-0.0140738
-0.0195381
-0.00895397
-0.011719
-0.0124454
-0.0115172
-0.0113737
-0.0125288
-0.00941023
-0.0157006
-0.0155681
-0.0126152
-0.0137262
0.0192216
0.0188838
0.0204852
0.0201602
0.019457
0.0181612
0.0185613
0.0201045
0.0205874
0.0201931
0.0199455
0.0202512
0.0185772
0.0183296
0.0176968
0.0194885
0.0183702
0.0189852
0.0179551
0.0194566
0.018761
0.0185288
-0.00502442
-0.00523485
-0.00501812
-0.0047803
-0.00456906
-0.00462249
-0.0034738
-0.00391331
-0.00476322
-0.00542537
-0.00472885
-0.00507911
-0.00408004
-0.00429361
-0.00407215
-0.00396572
-0.00461317
-0.00516759
-0.00453015
-0.00458249
-0.00504243
-0.00488813
-0.00470604
-0.00499792
-0.00524109
-0.0050469
-0.00517538
-0.0043804
-0.00442525
-0.00433113
-0.00450456
-0.00448669
-0.00517224
-0.00512348
-0.00510162
-0.00479106
-0.00440752
-0.00489041
-0.00500656
-0.0048605
-0.00491595
-0.00507494
-0.00529925
-0.00533823
-0.00485073
-0.00520383
-0.00485849
-0.00500031
-0.00475353
-0.00520608
-0.00443968
-0.00475609
-0.00455715
-0.00527222
-0.00491194
-0.00456269
-0.00526732
-0.00614502
-0.00647528
-0.00628793
-0.00786508
-0.00497736
-0.00340085
-0.00721321
-0.0070829
-0.00151633
-0.00245803
0.000186922
-0.00370599
-0.000958112
-0.00396956
-0.0033006
-0.00559002
-0.00518388
-0.00330283
-0.00269294
0.000865421
-0.0015084
0.000325028
0.00766013
0.00606894
0.00540999
0.00588564
0.0064807
0.00805817
0.00793686
0.00691467
0.00619706
0.0053683
0.00575959
0.00589644
0.00554882
0.00657695
0.00643365
0.00751631
0.00630727
0.00557219
0.00622023
-0.00750765
-0.00707589
-0.007293
-0.00732678
-0.00744615
-0.00750093
-0.00767779
-0.00797669
-0.00750667
-0.00806132
-0.00757175
-0.00742038
-0.00745147
-0.00738594
-0.0074398
-0.00741465
-0.00745488
-0.00344229
-0.00363981
-0.00505587
-0.00455729
-0.00436677
-0.00462738
-0.00484603
-0.00452513
-0.00391642
-0.00472744
-0.00411213
-0.00473487
-0.00441015
-0.00446424
-0.00499522
-0.00574471
-0.00588173
-0.00631843
-0.00492814
-0.00561339
-0.00465141
-0.00579072
-0.00553587
-0.00578783
-0.00581946
-0.00422522
-0.00548427
-0.00551558
-0.00521372
-0.00482087
-0.00595453
-0.000199711
-0.000500753
-0.000215145
-3.25426e-05
-0.000154173
-0.000252428
-0.000333447
-0.00036455
-2.54958e-05
-0.000205602
-0.000453889
-0.00041857
-0.000615178
-0.000623427
-0.000158102
-0.000324502
-0.000713342
-0.000618907
-0.00062373
-0.000598515
-0.000281508
-8.18732e-05
-0.00071619
-9.87606e-05
-0.000314516
-0.000263132
-0.000550764
-0.000680694
-0.000321251
-0.000445103
-0.000282449
-9.32872e-05
-9.72622e-05
-0.000372916
-0.000706868
-0.000350053
-0.000339568
-0.000697437
-0.000129774
-0.000357548
-0.0121382
-0.0130137
-0.015693
-0.0165528
-0.0162259
-0.0170593
-0.0132119
-0.014057
-0.0146139
-0.0108807
-0.0127275
-0.0133505
-0.015546
-0.014783
-0.0149647
-0.0135072
-0.0132844
0.00077548
0.000785915
0.000386791
0.0016799
0.00102943
0.000154516
-0.000115464
0.00175129
0.00145784
0.000494414
-0.00993217
-0.00984365
-0.0103311
-0.0106003
-0.00963589
-0.00959286
-0.010121
-0.0105567
-0.0105415
-0.0101426
-0.00992314
-0.00973073
-0.00964151
-0.00958772
-0.00948437
-0.00997705
-0.00969106
-0.00983961
-0.00754805
-0.00755117
-0.00768015
-0.00739144
-0.00775975
-0.00737966
-0.00757767
-0.00731124
-0.00701312
-0.00706099
-0.00780198
-0.00787084
-0.00756245
-0.000763611
-0.000445488
-0.000898784
-0.000553368
-0.0010749
-0.00128455
-0.000938856
-0.000337174
-0.000281037
-0.000774466
-0.00110346
-0.000902352
-0.00028371
-0.000199226
-0.00902147
-0.00895023
-0.0094232
-0.00917286
-0.00901498
-0.00904469
-0.00941487
-0.00924315
-0.00920424
-0.00934487
-0.00931861
-0.00961678
-0.00941208
-0.00909204
-0.00991833
-0.0198554
-0.0191444
-0.0188436
-0.0185847
-0.0179467
-0.0174173
-0.0204905
-0.0195452
-0.0194443
-0.0199778
-0.020449
-0.0201202
-0.0184626
-0.0181848
-0.0185761
-0.0189031
-0.0190397
-0.0196814
0.0316955
0.0316915
0.0319475
0.0312936
0.0314081
0.0313692
0.0314777
0.0312981
0.031619
0.0315964
-0.00762893
-0.00768733
-0.00767869
-0.00791415
-0.0075809
-0.00789188
-0.00755113
-0.00763644
-0.00744169
-0.00752612
-0.00756109
-0.00784858
-0.00791907
-0.0076804
-0.00793615
-0.00755069
-0.00767277
-0.00771953
-0.00752537
-0.00769588
-0.00776409
-0.00770336
-0.00493793
-0.00485655
-0.00516267
-0.00519155
-0.00442553
-0.00430916
-0.00502619
-0.00489309
-0.0050117
-0.00454892
-0.00440313
-0.00450822
-0.00507203
-0.00470507
-0.00471682
-0.00484241
-0.00498212
-0.0044658
0.033358
0.0343265
0.0355932
0.0342881
0.032862
0.0353425
0.0335225
0.034468
0.0307801
0.0326443
0.0342158
0.0313995
0.0317284
0.0304843
0.0292076
0.0323144
0.0301211
0.0289889
0.0300626
0.0336774
0.0315087
0.0305554
0.0279562
0.0332839
0.0339931
0.0354418
0.0348785
0.0393202
0.0385551
0.0357507
0.0383433
0.0315444
0.0307921
0.0391643
0.0401817
0.0367723
0.0394781
0.032683
0.0327975
0.0328546
0.0326663
0.0327717
0.0326656
0.0328408
0.0327923
0.0326408
0.0327687
0.0325872
0.0326243
0.0328432
0.0327822
0.0327849
0.0328416
0.0322544
0.0280943
0.0276731
0.0300264
0.0311327
0.0329749
0.0309192
0.0310075
0.0273217
0.0266469
0.0313485
0.0291807
0.030753
0.0279819
0.0300791
0.0278221
0.0275634
0.0288648
0.029442
0.0283068
0.0289886
0.0301151
0.0299554
0.0292298
0.0284951
0.0301326
0.0305381
0.0300354
0.024788
0.0243367
0.0265786
0.0279485
0.016071
0.0150629
0.0251568
0.0250001
0.0158015
0.0180227
0.0205689
0.0204943
0.0221986
0.0196819
0.017242
0.0151362
0.0305638
0.0297226
0.0300824
0.0305966
0.0297981
0.0311203
0.030717
0.0299191
0.029937
0.0327814
0.03235
0.0320305
0.0314795
0.0303598
0.0314934
0.0309296
0.0319883
0.0313746
0.0307196
0.03227
0.0104941
0.0123341
0.00703651
0.00412122
0.00530159
0.00810504
0.0154852
0.00713949
0.0109998
0.0109541
0.00471114
0.00970701
0.0104324
0.00735063
0.0103225
0.0168917
0.0169651
0.0154426
0.0134667
0.0118042
0.0207543
0.0178756
0.0179633
0.0151485
0.0190972
0.0191618
0.0191972
0.0165668
0.0151224
0.0161908
0.0163031
0.0170785
0.0173972
0.03198
0.0320258
0.0318367
0.0317314
0.0323957
0.0323679
0.0319399
0.0317811
0.0325468
0.0325554
0.0319959
0.0322808
0.0325373
0.0325037
0.0323999
-0.00988187
-0.00966199
-0.0100975
-0.0100028
-0.0104756
-0.0094867
-0.00941227
-0.0111898
-0.0108073
0.0343173
0.0334437
0.032435
0.0323789
0.0331191
0.0324966
0.0347307
0.032189
0.035953
0.0345103
0.0322999
0.0341572
0.0347958
0.0351574
0.0356221
0.0314087
0.0317159
0.0334953
0.0356618
0.0343322
0.0319009
0.0327773
0.00663785
0.00733758
0.00667757
0.00476297
0.00578153
0.0066878
0.00358383
0.00482893
0.00513596
0.00303873
0.00423231
0.00224359
0.0030736
0.00197694
0.00154236
0.00233261
0.00355019
0.00512072
0.00122425
0.00401529
0.0307876
0.0291016
0.0338321
0.0292987
0.03119
0.0376171
0.0348785
0.031063
0.0348007
0.0303975
0.0328504
0.0387173
0.0365441
0.0372695
0.0406884
0.0340155
0.0332825
0.0315541
0.036038
0.0300179
0.0332099
0.0309184
0.0348199
0.0392344
0.0401312
0.0382434
-0.00782691
-0.00873532
-0.00824431
-0.00786191
-0.00795313
-0.00859078
-0.0082382
-0.00783456
-0.00917834
-0.00769921
-0.00795158
-0.00869514
-0.00792159
-0.00767251
-0.00755642
-0.00778233
-0.00790976
-0.00867277
-0.00805919
-0.00742979
-0.00744736
-0.00740433
-0.00733098
-0.00788582
-0.00750964
-0.00785815
-0.0047764
-0.00454898
-0.005204
-0.00564925
-0.00468592
-0.00491121
-0.00459377
-0.00344891
-0.00530688
-0.00278778
-0.00527253
-0.0042098
-0.00370767
-0.00441141
-0.00528713
-0.0052331
-0.00459791
-0.00449536
0.0127635
0.0122643
0.00883129
0.0108411
0.00947588
0.00751614
0.00426093
0.00895434
0.00921937
0.0068095
0.00191944
0.00567373
0.007076
0.0280986
0.0288857
0.0292279
0.0278615
0.0295239
0.029301
0.029689
0.028826
0.0289564
0.0279448
0.028131
0.0300187
0.029385
-0.0112207
-0.011072
-0.0120692
-0.0113662
-0.0114176
-0.0120971
-0.0133606
-0.0128328
-0.0143049
-0.0121714
-0.0123275
-0.0119657
-0.013392
-0.0108271
-0.00947184
-0.00923464
-0.00971979
-0.0101084
-0.010487
-0.0105201
-0.010733
-0.00947299
-0.00958538
-0.010039
-0.0094586
-0.00906516
-0.00966602
-0.00953027
-0.00868652
-0.00824444
-0.00849983
-0.00867213
-0.00865638
-0.00839971
-0.00819887
-0.00821828
-0.00795003
-0.00829524
-0.00838633
-0.00858679
-0.00864534
-0.00849319
-0.00809029
-0.00831596
-0.00813809
-0.00779377
-0.00783653
-0.00770225
-0.00774436
-0.00764167
-0.00766047
-0.00801486
-0.00774429
-0.00765211
-0.00782538
-0.00780518
-0.00778929
-0.00833208
-0.0057468
-0.0071614
-0.00722485
-0.00571542
-0.00661325
-0.00675825
-0.00753426
-0.00547285
-0.00535726
-0.00595108
-0.00610404
0.0256049
0.0272019
0.0262882
0.0274068
0.0266572
0.0275636
0.0266701
0.0259143
0.0270267
0.0261383
0.0275354
0.0253149
0.0268571
0.035607
0.0384539
0.0407825
0.0490878
0.0468937
0.0353998
0.0524918
0.0516812
0.0388094
0.0444637
0.0369872
0.0391859
0.0474042
0.0513096
0.0541101
0.0424784
0.0443231
0.0410145
0.0507252
0.0486952
0.0469015
0.0439091
0.0363328
0.0363531
0.0362932
0.0350112
0.0347388
0.0334676
0.0338805
0.0343746
0.0336587
0.0326599
0.0327521
0.0225776
0.0219092
0.0216099
0.0211996
0.0236999
0.023188
0.0214672
0.0228977
0.0220631
0.0211399
0.0203578
0.0206392
0.0223747
0.0237821
0.023971
0.0211552
0.0206042
0.0229272
0.0200436
0.0341691
0.0344589
0.0343386
0.0343328
0.035077
0.0349089
0.0346921
0.0345175
0.0345147
0.0349183
0.0356779
0.0353786
0.0358141
-0.00673271
-0.00257995
-0.000113014
-0.00397784
-0.00199985
0.00189909
0.0017261
0.00227601
0.00313899
-0.00130822
0.00101932
-0.00678298
-0.0100666
-0.00140558
0.00187278
-0.00458016
-0.00218373
-0.0104022
-0.00546386
-0.0111358
-0.00416524
-0.00780728
-0.00765631
-0.00765324
-0.0077996
-0.00745171
-0.00759819
-0.00758715
-0.00797698
-0.00753619
-0.00733289
-0.00787165
-0.00763824
-0.00757533
-0.0075165
-0.00758131
-0.00758182
-0.00723316
-0.00745335
-0.0094074
-0.0107966
-0.00861605
-0.00880443
-0.00821221
-0.0100665
-0.00893727
-0.008949
-0.00868088
-0.00895927
-0.0100509
-0.0121602
-0.00979427
-0.0096388
-0.00880265
-0.00695347
-0.00822008
-0.00791829
-0.0073969
-0.00852628
-0.0101276
-0.00808521
-0.00641492
-0.00720905
-0.00679587
-0.00866862
-0.00724541
-0.00341798
-0.00384993
-0.00408757
-0.00400063
-0.00441412
-0.0114941
-0.0135389
-0.012223
-0.0135699
-0.0180725
-0.0114215
-0.0152303
-0.0184742
-0.0177742
-0.022385
-0.0238042
-0.0202806
-0.0198156
-0.0205706
-0.0157492
-0.00234375
-0.00245696
-0.00271175
-0.00350603
-0.0030647
-0.0029235
-0.00313422
-0.00281156
-0.00281643
-0.00211673
-0.00161316
-0.00308578
-0.00284441
-0.00216218
-0.000895492
-0.00213842
-0.00279091
-0.00224275
0.0182956
0.0162823
0.0121633
0.0192559
0.00612413
-0.00431607
0.0185772
0.00880668
0.0175998
0.0115738
0.0128976
-0.0171461
-0.00962768
-0.0281882
0.00669152
0.00613465
0.00320661
-0.00680053
0.000340648
0.00557269
-0.017544
-0.0171243
-0.0171916
-0.0156592
-0.0160531
-0.0149082
-0.0147765
-0.0145903
-0.0160034
-0.0162222
-0.0141982
-0.0148713
-0.0153849
-0.0144643
-0.0100592
-0.00839187
-0.00907533
-0.0107731
-0.00656068
-0.00726276
-0.00865623
-0.0109493
-0.00849719
-0.00806611
-0.010826
-0.00961365
-0.00581374
-0.00649408
-0.00577011
-0.00634146
-0.0064098
-0.00666534
-0.00466079
-0.00569385
-0.00486943
-0.00742245
-0.0107673
-0.00600497
-0.0117608
-0.00990445
-0.0117459
-0.0110602
-0.00173324
-0.00221953
-0.00207669
-0.00409477
-0.00624231
-0.00673945
-0.00857809
-0.00867237
-0.00338596
-0.00641015
-0.00389081
-0.00401321
-0.000595768
-0.0022529
-0.00250904
-0.00218152
0.00119918
0.00097168
-2.71055e-05
0.00297187
0.00300051
-0.00045606
-0.0027
0.000175339
0.00128254
0.00280242
0.00335504
-0.00112498
0.00129849
0.000990159
-0.000488617
0.000711977
0.0140286
0.0146535
0.0117325
0.0121436
0.0147195
0.0128672
0.0123931