/*--------------------------------*- C++ -*----------------------------------*\
  =========                 |
  \\      /  F ield         | OpenFOAM: The Open Source CFD Toolbox
   \\    /   O peration     | Website:  https://openfoam.org
    \\  /    A nd           | Version:  10
     \\/     M anipulation  |
\*---------------------------------------------------------------------------*/
FoamFile
{
    format      ascii;
    class       volScalarField;
    location    "17";
    object      k;
}
// * * * * * * * * * * * * * * * * * * * * * * * * * * * * * * * * * * * * * //

dimensions      [0 2 -2 0 0 0 0];

internalField   nonuniform List<scalar> 
75457
(
1.96177
2.22508
1.34505
0.674038
1.40032
1.56682
1.73296
1.6331
0.482431
0.473405
0.423444
1.22272
1.0669
0.499487
0.0860754
0.0708115
0.0170856
0.050112
0.0600243
0.0104453
0.0286743
0.0195927
0.0808223
0.0823814
0.0490472
0.100532
0.102573
0.0919137
0.0836408
0.131797
0.0809263
0.116985
0.117925
0.0524455
0.0467845
0.0625572
0.0549054
0.120594
0.110652
0.0584401
0.0608525
0.0548481
0.0571538
0.111825
0.193848
0.0383639
0.0192005
0.105104
0.621587
0.197829
0.397849
0.555729
1.30891
0.393673
0.226548
0.24568
1.01322
0.974813
0.831727
1.38592
1.12774
0.694324
0.452649
0.319174
0.0561577
0.328913
0.087529
0.37536
0.483806
0.90788
0.463747
0.98971
0.362535
0.0287587
0.452718
0.129167
0.136647
2.37827
2.11226
1.65729
1.75375
1.93599
2.26396
1.88517
1.20203
1.19193
1.32154
1.47183
2.30365
1.5911
1.85726
1.6237
1.77541
1.55378
0.91501
0.333579
0.361489
0.397114
1.74202
0.844048
0.803822
1.25009
0.118643
0.00357628
0.0401539
0.0558281
0.187112
0.0404964
1.07591
0.309192
0.375491
0.776804
0.877224
0.705296
0.0667435
0.833862
1.28552
0.456906
0.448033
1.54054
0.0188769
0.0721722
0.0768796
0.18636
0.444331
0.270935
0.864187
0.440236
0.846515
0.0930935
0.169811
0.904576
0.275189
0.588245
0.519166
0.87031
0.361131
0.744011
0.712226
1.30775
0.134254
0.265209
0.460867
0.151041
0.188393
0.652018
0.588266
0.525406
1.21807
0.701419
1.83128
1.11041
0.280918
0.197253
0.611011
0.970472
0.66539
1.25121
0.413694
0.874968
1.29008
0.312249
0.995337
0.00522506
0.0054445
0.00562657
0.00546941
0.00558254
0.00503085
0.00500974
0.00519949
0.00555779
0.00511429
0.00532625
0.00517728
0.00505408
0.685972
0.730317
0.880272
1.12824
0.973969
1.21797
0.699402
0.912932
1.43558
0.527046
0.725834
0.857322
1.35475
2.82419
0.955166
0.588714
0.830517
0.924302
0.639178
1.34923
0.106549
0.247367
0.18902
0.140803
0.0923429
0.570448
0.716497
0.740456
0.473318
0.520298
0.892799
1.52832
1.48351
1.49474
1.19848
1.2019
1.56375
1.72485
1.06976
1.03215
1.78695
1.14892
1.89552
1.86182
1.68423
0.911534
0.941925
1.28718
0.883951
0.952309
1.82436
0.887511
0.832881
0.954355
0.232873
0.222528
1.24978
0.65662
0.873708
0.765851
1.13648
0.403798
0.436626
0.465123
0.473775
1.0345
1.20745
0.903152
1.22696
0.955072
0.728635
0.87751
1.14332
1.58734
1.08584
1.24037
0.697659
1.11481
0.726375
0.793088
0.413008
0.225604
0.322065
0.0441958
0.118722
0.141655
0.425279
0.351757
0.929498
1.60491
1.12274
2.08321
1.44605
1.40611
1.61967
1.35524
0.857993
0.897555
0.906351
0.818512
0.98297
0.886273
1.18102
0.848346
1.05492
1.02015
0.967956
0.914532
0.766741
0.841159
0.68146
0.274718
0.311608
0.493019
0.408095
0.467905
0.714228
1.00029
0.985907
1.23427
1.05976
0.880677
0.873161
1.06722
0.913039
0.353618
0.743217
0.291932
0.294801
0.297101
0.296277
0.310363
0.333056
0.444617
0.361573
0.465218
0.356925
0.3771
0.870434
1.01357
0.436551
0.696215
0.387567
0.147091
0.624362
0.373737
0.572527
0.338901
0.185914
0.507858
0.444055
0.462446
1.00095
1.11422
0.607645
0.581481
1.11811
1.29069
0.539876
0.559829
1.188
1.11707
1.89153
1.0934
1.08473
1.72448
0.768282
0.7501
0.768582
0.549967
0.8933
0.936916
1.00171
1.1449
0.887829
0.458306
0.824888
0.651263
1.02242
1.23036
1.27258
2.15428
0.897852
0.788833
1.37833
1.50071
1.43447
1.44258
0.390905
0.375871
0.458984
0.4779
0.707256
0.583959
1.13427
0.61162
0.668105
0.916759
1.58067
1.12305
1.02386
0.958495
1.03746
0.93034
0.775252
0.671862
0.536509
0.404114
1.2615
1.20876
0.885311
1.09275
0.337594
0.298599
0.775498
0.00401717
0.00418251
0.00374966
0.00373832
0.00423413
0.00444275
0.00396784
0.00426064
0.00418227
0.00528902
0.00378626
0.00372686
0.00368095
0.00369243
0.00376963
0.00382743
0.00367953
0.00370235
0.00391542
0.00393651
0.00380794
0.00357421
0.00353861
0.00351988
0.00390562
0.00384018
0.00373687
0.00353705
0.0034799
0.00368895
0.00373102
0.00387698
0.00390845
0.00368804
0.00370704
0.00381938
0.00378212
0.00374301
0.00378427
0.00388527
0.00387935
0.00373396
0.00381196
0.00375862
0.00376304
0.00372078
0.00378302
0.00387979
0.00400143
0.00374962
0.00386824
0.00386125
0.00380621
0.194665
0.0698951
0.0734522
0.067163
0.0707476
0.160191
0.0642287
0.0779489
0.0527396
0.187492
0.0514288
0.0531008
0.0560227
0.0614905
0.0449444
0.161545
1.442
0.922147
0.85453
0.919267
0.405114
0.42347
0.782311
0.748709
0.398948
0.391831
1.83774
1.4237
1.50535
0.958062
0.439418
0.091436
0.0128565
0.0186479
0.0780016
0.0762601
0.0474193
0.0180994
0.0174542
0.0175046
0.0221048
0.0136678
0.044572
0.0738134
0.0721341
0.0814239
0.248873
0.0902551
0.0562588
0.0550598
0.00399937
0.00406138
0.00405175
0.00399774
0.00392672
0.00413819
0.00414891
0.00379042
0.00393466
0.00411156
0.00411182
0.00439436
0.00414889
0.00397674
0.00397169
0.00400634
0.00491352
0.0046965
0.00497619
0.00472528
0.0045327
0.00502806
0.00542563
0.00511422
0.00496221
0.00511521
0.00505293
0.00488018
0.00511752
0.00487323
0.00496748
0.00539047
0.00541263
0.00449054
0.0047887
0.00453781
0.00475422
0.0046752
0.00455677
0.00350089
0.00694256
0.00429768
0.00453135
0.00406038
0.00448605
0.00430106
0.00444713
0.00423572
0.00428043
0.00355544
0.450485
0.333815
0.399621
0.49788
0.308116
0.511582
0.452189
0.54224
0.343602
0.357551
0.373133
0.51884
0.632344
0.433827
0.560397
0.329883
0.544148
0.587785
0.0498821
0.0532545
0.0644042
0.0851743
0.0302909
0.0998789
0.0545868
0.0576925
0.0615247
0.120726
0.0685894
0.0663204
0.0656312
0.0354479
0.116475
0.107237
0.142365
0.0876116
0.153415
0.15009
0.157757
0.117231
0.102254
0.153677
0.159611
0.162687
0.115219
0.0740288
0.0793167
0.150553
0.0928962
0.125901
0.00390198
0.00392697
0.00395801
0.00443268
0.00470173
0.00394712
0.00382961
0.00434051
0.00418522
0.00423759
0.0036373
0.00465425
0.27803
0.178761
0.390538
0.142567
0.345584
0.26696
0.285036
0.296563
0.34948
0.0879053
0.0643897
0.074061
0.0865738
0.0726945
0.0745492
0.0814662
0.0197264
0.0933578
0.0110837
0.0838665
0.212374
0.185411
0.267408
0.162507
0.136527
0.0906175
0.0571344
0.0342782
0.182243
0.0488569
0.0589299
0.0804498
0.00567851
0.00430591
0.0408178
0.00738258
0.00186276
0.0570072
0.042823
0.0135534
0.000330996
0.0029895
0.000706624
0.00180308
0.00319748
0.00278978
0.00790791
0.056647
0.0508792
0.0508137
0.0166104
0.145825
0.118109
0.0754794
0.20425
0.111767
0.16492
0.124869
0.0659924
0.10784
0.0598518
0.178726
0.142628
0.118735
0.119796
0.309106
0.318094
0.280797
0.294449
0.285899
0.287644
0.20966
0.239539
0.301933
0.193042
0.201829
0.319649
0.22929
0.200084
0.222797
0.1951
0.198196
0.214699
0.200899
0.436625
0.497648
0.0231354
0.0879678
0.332461
0.170612
0.0369679
0.0723061
0.574126
0.378637
1.29161
1.2427
1.42928
1.46273
1.38271
1.43253
1.31282
1.32626
1.19943
1.1904
1.49749
1.66185
1.66473
1.57658
1.63394
1.568
1.38074
1.28816
1.44011
1.35877
1.40025
0.0365657
0.027285
0.0876063
0.0628938
0.0709009
0.0309229
0.0542596
0.0549721
0.054205
0.164433
0.214505
0.274403
0.0270708
0.209584
0.38287
0.163461
0.271536
0.0688163
0.178923
0.294164
0.572234
0.181095
0.219444
0.684455
0.596635
0.203989
0.547023
0.346353
1.33612
1.36995
1.36895
1.52561
1.33087
1.52189
1.58191
1.52219
1.39325
1.39818
1.48365
1.44578
1.5001
0.0529251
0.0640119
0.0172705
0.021822
0.0193305
0.0172484
0.0297809
0.0370032
0.114995
0.040746
0.0705329
0.0776705
0.0200075
0.0212386
0.077309
0.0386708
0.0732452
0.0705424
0.0520836
0.097555
0.117298
0.0434486
0.0730531
0.024045
0.112753
0.0331577
0.0252384
0.127962
0.12474
0.0186456
0.0826242
0.0970519
0.0736053
0.0685234
0.1286
0.0291561
0.0556312
0.186957
0.107901
0.042624
0.00595247
0.013488
0.117197
0.213241
0.114603
0.111025
0.132837
0.188916
0.106837
0.136575
0.109426
0.0664479
0.0645945
0.117376
0.132223
0.18383
0.0689443
0.075141
0.0974608
0.186624
0.1376
0.099536
0.121386
0.108764
0.519195
0.47028
0.065163
0.114473
0.155057
0.209239
0.113939
0.12715
0.196424
0.458385
0.602856
0.489996
0.164034
0.205305
0.111732
0.375662
0.281112
0.0380585
0.0386706
0.0238408
0.026863
0.0295399
0.0231971
0.0187197
0.0281095
0.0248752
0.034705
0.0371731
0.0181902
0.0366134
0.0372942
0.00382844
0.00376
0.003909
0.00394273
0.00395067
0.00385706
0.00402847
0.0039111
0.00422371
0.00433614
0.12475
0.0841861
0.132278
0.181111
0.0570064
0.0493378
0.169196
0.245843
0.0677956
0.142625
0.141206
0.140883
0.16843
0.0494355
0.162683
0.140762
0.0338541
0.635816
0.692884
0.651827
1.07927
0.980378
0.779173
1.00172
0.931109
0.963138
1.03204
0.601184
0.59992
0.743349
0.666687
0.89015
0.92987
0.89282
0.628909
0.679549
0.704583
0.00246669
0.00371389
0.00365279
0.0022318
0.00483313
0.0283075
0.0326787
0.00537535
0.0037526
0.00337189
0.0310419
0.038818
0.00201259
0.0176505
0.0238197
0.0453472
1.90784
2.23701
2.48992
2.34463
1.79915
2.19004
1.74862
2.29473
2.79502
2.52529
1.93837
2.03744
2.26075
0.0863255
0.119907
0.110568
0.074299
0.0650203
0.0698255
0.111528
0.092025
0.0742884
0.0778237
0.0470714
0.0759683
0.0412925
0.116767
0.094641
0.0545917
0.121714
0.109609
0.049879
0.0454034
0.0439443
0.0536039
0.00106764
0.00156769
0.00264157
0.00165322
0.00158044
0.0260605
0.105326
0.00397126
0.0374395
0.255356
0.284116
0.152403
0.141536
0.17324
0.0485097
0.152754
0.198006
0.151462
0.0535846
0.0528328
0.138831
0.0261171
0.0711032
0.0602644
0.0477429
0.0480667
0.0745118
0.0476418
1.00161
1.01699
1.15906
1.08769
1.01566
0.985431
1.05764
1.04328
1.18469
1.0972
1.21986
1.20787
1.23754
1.26188
1.1998
1.13044
0.0713922
0.165356
0.134717
0.0751624
0.010939
0.0190121
0.0265165
0.0116867
0.0107999
0.010228
0.0873877
0.0587969
0.0187754
0.000142658
0.0309073
0.022796
1.16725
1.7104
1.14559
1.5453
1.34164
1.98387
0.494036
0.622269
0.458449
0.490898
0.508342
0.744923
1.46087
1.90494
1.25521
0.810286
1.01165
1.01735
0.750494
1.75149
0.0133633
0.00925432
0.00738979
0.00650884
0.00783668
0.00583581
0.00655586
0.00669327
0.00662388
0.0136707
0.0165976
0.00887469
0.00871267
0.00588736
0.0155074
0.0643457
0.0752119
0.126888
0.173889
0.241742
0.24248
0.306416
0.124365
0.421083
0.559148
0.490549
0.235763
0.635266
0.652212
0.0252485
0.0450058
0.0189079
0.022957
0.0201754
0.0318664
0.0133923
0.00693921
0.0332211
0.00767699
0.0172332
0.00706413
0.0109014
0.00675153
0.00552566
0.00586941
0.0743362
0.0806131
0.0636666
0.0642589
0.223602
0.23102
0.0422964
0.121594
0.116876
0.0516151
0.220702
0.176224
0.267884
0.165959
0.177693
0.238941
0.244939
0.285473
0.286999
0.0116038
0.0560526
0.028127
0.0236712
0.013273
0.119285
0.0354306
0.0514482
0.0680166
0.0493772
0.0123837
0.0145393
0.0232721
0.0158866
0.0739184
0.0576753
0.047114
0.106383
0.074242
0.0898774
0.039389
0.0576034
0.113332
0.0708714
0.0636966
0.0159968
0.0118898
0.0105423
0.0783177
0.00444816
0.00648481
0.0254901
0.0229958
0.0125398
0.0108953
0.026126
0.0290054
0.0130494
0.025014
0.00907498
0.00731589
0.0073224
0.00806146
0.030908
0.00855833
0.0230742
0.0207113
0.0165494
0.0311241
0.0243872
0.025122
0.0608063
0.0230719
0.0650787
0.0716559
0.0557426
0.0392587
0.529312
1.15722
1.68908
0.893074
1.3055
0.649706
0.805672
1.22737
1.42266
0.476221
0.955019
1.12428
1.63355
0.641491
1.11052
0.306477
0.819827
0.459323
0.419545
0.765986
0.911728
0.702235
0.410578
0.3692
0.36444
1.27503
1.27696
1.28498
1.43667
0.360228
0.369771
0.354936
0.323572
0.350089
0.645006
0.673804
0.587496
0.0448341
0.0882117
0.0260088
0.0436793
0.0243399
0.0228083
0.0175505
0.0260852
0.0222844
0.0219801
0.035406
0.0170708
0.0191888
0.020401
0.0199097
0.0157653
1.17778
1.26366
1.1181
1.28592
0.505931
0.820261
1.32553
0.812452
0.696135
0.865177
0.800072
0.92612
0.206256
1.19966
1.37186
0.986278
1.15003
0.297389
0.0710928
0.943931
0.066813
0.993021
1.28336
0.406178
0.773062
0.29799
1.14499
1.47353
1.08111
0.124785
0.352321
0.447123
1.62678
0.366305
0.747976
0.833614
1.37008
0.384287
0.578065
0.567462
1.08188
0.317542
0.480781
1.55036
0.360178
0.724184
0.391189
0.933556
1.3923
0.745099
0.441336
1.10222
1.21743
0.365571
0.226272
0.867466
0.227942
0.827932
1.38085
0.81836
0.214985
0.256594
1.27183
0.836057
0.262625
0.237385
0.330531
0.25402
0.108588
0.171251
0.135972
0.267563
0.28162
0.0713372
0.0858656
0.0906166
0.216333
0.326501
0.137091
0.168115
0.0866885
0.224165
0.241719
0.083731
0.0789009
0.0445798
0.0375146
0.0412297
0.0469275
0.121156
0.0688742
0.0448422
0.0673834
0.048534
0.414669
0.706784
0.282557
0.0108508
0.0104591
0.0100607
0.010365
0.0111684
0.00934483
0.0333669
0.0390367
0.0611536
0.0314705
0.00161302
0.0128855
0.0141735
0.00849798
0.0274195
0.0265457
0.0782958
0.0303703
0.00658074
0.00738487
0.777779
0.778114
0.736799
0.640557
0.954136
0.93705
0.950191
0.777288
0.576699
0.701942
0.742334
0.750381
0.710208
0.729058
0.62958
0.706691
0.595428
0.576005
0.579897
0.0280711
0.0132757
0.0191856
0.0148236
0.457101
0.754373
0.206028
0.337002
0.0554801
0.0228508
0.34491
0.0769118
0.0280403
0.160358
0.566575
0.211816
0.131265
0.297008
0.124671
0.304038
0.134831
0.125161
0.222871
0.138604
0.217955
0.817073
1.03517
0.527506
0.536575
0.403944
0.310758
0.215876
0.358054
0.294145
0.627164
0.283424
0.186458
0.194183
0.284597
1.96265
1.78782
2.14319
2.20995
2.03754
2.25716
1.7326
1.71667
1.68964
1.57231
1.56559
1.90794
1.90954
1.73336
2.15679
2.27216
0.0235299
0.0222428
0.0247529
0.0299169
0.0303879
0.0269078
0.0503712
0.0418812
0.0448319
0.02769
0.0314436
0.0300564
0.0454836
0.0351457
0.0357997
0.0345137
0.0417247
0.0391457
0.0394248
0.0304046
0.729165
1.00745
0.601703
1.01348
0.461657
0.524738
0.186082
0.3268
1.12185
0.656515
1.13501
0.941801
0.24313
0.233579
1.15234
0.842148
1.12898
0.735571
1.42063
0.483857
0.0219353
0.0445872
0.0551427
0.0549551
0.0372832
0.0281719
0.0250184
0.0391213
0.0490278
0.041758
0.0426072
0.0380362
0.0658485
0.031641
0.0840501
0.076572
0.0784728
0.511377
1.11388
1.01091
1.93831
0.566007
0.652676
0.827591
0.888197
2.95015
0.844951
0.498845
1.6341
0.0119943
0.0104986
0.00903228
0.00412902
0.0114667
0.00835034
0.00770377
0.00524728
0.00496604
0.013621
0.00884973
0.00477158
0.0570339
0.000276701
0.0196583
0.00104319
0.0309859
0.0974979
0.00111156
0.0563932
0.0806934
0.164662
0.148465
0.00694734
0.0112889
0.247588
0.175986
0.263362
0.00970265
0.0213122
0.0350375
0.00781947
0.0171396
0.0201406
0.0077607
0.0710872
0.020795
0.0304293
0.00984399
0.04946
0.152243
0.0371798
0.0673089
0.095137
0.358596
0.0111967
0.015327
0.264154
0.456657
0.0388649
0.0245259
0.0976561
0.242408
0.0702471
0.2456
0.248638
0.200253
0.104447
0.134125
0.216178
0.154622
0.152815
0.0782993
0.0259052
0.122604
0.0679004
0.0631045
0.0215371
0.014949
0.0238547
0.0292372
0.0528874
0.00214287
0.00418224
0.000497982
0.00301007
0.0726391
0.0720939
0.00911125
0.0011131
0.00539514
0.0385345
0.0726889
0.0716422
0.0121008
0.00307637
0.00524407
0.134092
0.0767138
0.511874
0.35916
0.124859
0.485743
0.328539
0.219502
0.104879
0.00977971
0.00162368
0.0160577
0.0535953
0.00503817
0.0209687
0.0213591
0.00741474
0.0269098
0.018876
0.0204813
0.0246594
0.024889
0.0106157
0.0110155
0.0227736
0.0274561
0.0257718
0.0207327
0.017664
0.0261284
0.020077
0.111429
0.0693667
0.0632903
0.158035
0.0652818
0.524186
1.04144
0.0921629
0.227721
0.281736
0.196868
0.338099
0.293231
0.121738
0.845526
0.986452
1.24757
1.18101
0.499212
0.387925
0.229409
0.0673924
0.0843424
0.381578
0.3473
0.154353
0.148379
0.145308
0.0819519
0.10092
0.156947
0.0956648
0.0821982
0.123692
0.0720524
0.046968
0.128153
0.194399
0.125166
0.122865
0.381395
0.406075
0.404826
0.398307
0.401705
0.394423
0.397404
0.403428
0.420482
0.390344
0.371252
0.404658
0.484417
0.455529
0.402797
0.39087
0.496623
0.378389
0.42351
0.531533
0.512793
0.43198
0.966009
0.778287
0.594352
0.828516
1.22149
0.762765
0.450185
0.858883
0.464037
0.790725
0.830378
1.5856
1.65969
0.915241
1.50177
1.77262
1.10994
1.57419
1.08961
0.735494
0.50157
0.360194
1.42401
1.00761
1.03279
0.197082
0.337902
1.22239
0.271406
1.01126
0.893155
0.251324
0.226263
0.191641
0.808438
0.977116
0.992005
0.969717
0.903406
0.983911
0.992788
0.90004
1.00411
0.95537
0.947081
0.982058
0.936553
0.869697
0.88477
0.829981
1.02994
0.971084
0.973524
0.864419
0.923921
0.973008
0.911504
0.63402
0.208641
0.235573
0.265569
0.731498
0.542246
0.955208
0.647158
0.561379
0.212951
0.431791
0.752734
0.539461
1.14099
1.06925
0.432564
0.46288
0.507797
1.46928
0.906791
0.956371
0.65001
0.401876
0.979291
1.08752
0.466764
0.346161
0.25723
0.953322
0.814411
1.04149
1.33139
0.605451
0.898914
0.902379
0.263673
0.65355
0.71099
0.283797
0.27892
0.987553
0.787712
0.807494
1.13906
0.818475
0.851781
0.30264
0.279081
0.65694
0.304969
0.904296
0.993718
1.05384
0.99479
1.01471
0.841187
0.896766
0.791668
0.93339
0.875182
0.586848
0.561508
0.942199
0.694083
0.553528
0.795925
0.827334
0.0762977
0.0883778
0.0907354
0.0897535
0.0887759
0.100472
0.0847513
0.0989546
0.0769474
0.0761929
0.0779759
0.10169
0.0815255
0.0947711
0.0862563
0.0931816
0.0840827
0.0830642
0.0859161
0.116577
0.0996287
0.0875054
0.102747
0.0841118
0.0658649
0.0730642
0.0822504
0.0388793
0.0270068
0.0667581
0.0459056
0.0193937
0.0160006
0.0292609
0.0277187
0.0152668
0.0272352
0.0239848
0.0218726
0.0250054
1.87948
1.46183
1.62733
1.76292
1.48568
1.70726
2.31275
1.3095
1.47404
2.27518
1.49102
1.38072
1.47874
1.36973
3.45959
1.62309
2.54762
0.122834
0.0210604
0.136332
0.676436
0.543743
0.027132
0.0897676
0.0806356
0.011293
0.261501
0.400671
0.651828
0.204443
0.202396
0.466217
0.686977
0.111988
0.111563
0.127858
0.125656
0.161135
0.182715
0.137596
0.929425
0.74599
0.17203
0.122178
0.275185
0.476468
0.769537
0.512108
0.602404
0.620523
0.76705
1.24018
1.64678
1.04262
1.50495
0.315691
0.629066
0.285282
0.0368907
0.0314918
0.0383565
0.0309264
0.0246789
0.036204
0.0299487
0.028393
0.0376122
0.0444384
0.0364936
0.0339363
0.0292965
0.0343279
0.119539
0.154729
0.106384
0.106503
0.238173
0.0902942
0.105158
0.196551
0.335932
0.235859
0.398683
0.144763
0.153545
0.246198
0.0852947
0.50817
0.572722
0.49329
1.06299
1.03679
1.04565
1.27078
1.48166
0.802862
0.598825
1.30385
1.34383
1.05985
1.48937
1.25172
1.19459
1.31375
1.32826
0.02945
0.0410724
0.024903
0.0242746
0.027319
0.0239135
0.0282344
0.0222398
0.0220759
0.0174721
0.934698
0.922457
0.670928
1.13442
0.235912
0.196569
0.146327
0.293217
0.531436
0.651951
0.909685
0.937302
0.772996
0.176242
0.195598
0.0690747
0.596465
0.822463
0.181444
0.18844
0.159121
0.189286
0.834504
0.605822
0.668885
0.563588
0.786079
0.681757
0.481965
0.78166
0.690543
0.678279
0.610585
0.675863
0.386077
0.68444
0.647339
0.450269
0.361383
0.751113
0.00696281
0.00685422
0.00651513
0.00698958
0.00662913
0.00633072
0.00670002
0.00656644
0.00614507
0.00644972
0.00627175
0.00653302
0.00675239
0.00654455
0.00628476
0.0060165
0.00612472
0.00591682
0.00626916
0.982829
1.06549
0.761963
0.90967
0.7382
0.7347
0.808682
0.646861
0.713732
0.661561
0.93299
1.03044
1.03552
0.907932
0.754901
0.72553
0.843689
0.933102
0.0277368
0.0289375
0.0242719
0.0220766
0.0370017
0.0310567
0.0358724
0.0302548
0.028021
0.0471972
0.035475
0.0368789
0.0370079
0.0444463
0.0597941
0.0571483
0.00401882
0.00412072
0.00410914
0.00403436
0.00406834
0.00400713
0.00399595
0.0039552
0.00397958
0.0039699
0.00397743
0.00393111
0.00398667
0.00460207
0.00456485
0.00468415
0.00467127
0.00459807
0.00447051
0.00496083
0.0047174
0.00508268
0.00475863
0.00487826
0.00486546
0.00479882
0.00494772
0.00463756
0.00431832
0.0048031
0.00406866
0.00449808
0.00445453
0.00277019
0.00405542
0.00425723
0.00443352
0.00431165
0.00461337
0.00377974
0.00426872
0.00424456
0.00451308
0.00446882
0.00883002
0.0088223
0.00860949
0.00800826
0.00813826
0.00846617
0.0078784
0.00791422
0.0082303
0.00831357
0.00998203
0.00982409
0.00840163
0.00801978
0.00826755
0.00831942
0.00976588
0.00867383
0.00888085
0.00869507
0.723583
0.718308
0.638672
0.392773
0.543812
0.475964
0.720044
0.567617
0.64991
0.313126
0.337481
0.633701
0.495719
0.586389
0.680313
1.0305
0.708078
0.858751
0.890515
0.967959
1.10134
0.847052
0.954396
0.975368
1.04482
1.10479
1.27969
1.06951
0.46843
0.43364
0.492672
1.03534
1.0472
0.0116716
0.0108928
0.0109279
0.00960816
0.0124177
0.0110862
0.00963304
0.00950186
0.0102601
0.0109182
0.00879826
0.00871497
0.00858107
0.00923226
0.00975157
0.241151
0.183485
0.171988
0.163167
0.303814
0.184442
0.235166
0.294396
0.340883
0.00809557
0.0085111
0.00749347
0.00751498
0.0081782
0.0073677
0.00727996
0.00771821
0.00703678
0.00680053
0.00684506
0.00668502
0.00703172
0.0078669
0.00735462
0.00685984
0.00691781
0.00715404
0.00782045
0.00819025
0.00697501
0.00717402
0.00271074
0.00402527
0.00233082
0.00284186
0.00402794
0.0076597
0.00326637
0.00259889
0.00227735
0.00281584
0.00252225
0.00278424
0.00321834
0.0020984
0.00248093
0.00287537
0.00287515
0.00565761
0.00318
0.00772899
0.00409388
0.00400984
0.00382415
0.00423564
0.00478834
0.00415708
0.00438118
0.00461346
0.00425681
0.00401747
0.00385787
0.00372392
0.0037641
0.00426738
0.00417376
0.00456418
0.00443081
0.00437375
0.00409369
0.00429102
0.00405817
0.00456918
0.00376515
0.00404913
0.00428822
0.00370641
0.0246416
0.0447863
0.044124
0.0344163
0.011477
0.0359659
1.29753e-05
0.00217151
0.0403146
0.0152838
0.052522
0.0287043
0.0240223
0.00284921
0.0052615
0.0189357
0.00600356
0.00919855
0.00261255
0.00500265
0.00565038
0.00716168
0.00555531
0.0201475
0.0053425
0.0103182
0.0057292
0.00581825
0.00530254
0.00617436
0.00780072
0.00566112
0.00644735
0.0157268
0.00842531
0.010529
0.0151578
0.00728345
0.00943633
0.00939845
0.0091942
0.00709711
0.00721817
0.00734523
0.00374071
0.00380879
0.00426682
0.00374757
0.00365119
0.00459341
0.00395525
0.0037108
0.00364728
0.00379326
0.00453471
0.00370769
0.00350205
0.00547829
0.00600092
0.00559893
0.00507887
0.00559519
0.00597607
0.00641798
0.00578186
0.0055471
0.00557977
0.00550092
0.00601339
0.00569577
0.23946
0.143563
0.188892
0.240873
0.203005
0.138752
0.179789
0.190055
0.190647
0.255791
0.263575
0.238433
0.252551
0.0368732
0.0119255
0.0142461
0.0149539
0.0143491
0.0367647
0.00889399
0.0441324
0.0125422
0.0114941
0.0163093
0.00932337
0.00649713
0.00789988
0.0135664
0.0153051
0.0141909
0.0253739
0.026001
0.0476126
0.0117179
0.00724598
0.0455908
0.038667
0.0917393
0.030751
0.043124
0.0361189
0.0119018
0.0381651
0.0133747
0.0171008
0.0215885
0.0134072
0.0198651
0.0146535
0.0298393
0.0162989
0.0100258
0.01099
0.026547
0.0144011
0.0118625
0.0145249
0.0185364
1.09319
1.18688
1.12789
0.868714
1.13713
1.04226
1.26735
1.16044
1.12679
1.20873
1.26665
0.00397702
0.00385921
0.00411767
0.00428531
0.00441946
0.00406081
0.00426448
0.0041131
0.0042958
0.00430628
0.00407403
0.00409492
0.00417653
0.00330137
0.00896371
0.00363725
0.0457982
0.00493479
0.00614371
0.00337975
0.00341082
0.00631968
0.00795804
0.00446163
0.00547516
0.00566345
0.00493415
0.0104504
0.00414453
0.00529714
0.00508102
0.00837636
0.00446183
0.0045319
0.00463324
0.00357044
0.00381927
0.00306518
0.00207558
0.00460913
0.00337196
0.00346873
0.00461698
0.00351317
0.0037706
0.00397757
0.00379639
0.0038648
0.00344029
0.00330287
0.00378849
0.0038433
0.00397431
0.00392851
0.00424816
0.00418877
0.00402993
0.00392114
0.00395182
0.00400793
0.00401502
0.00395771
0.0045038
0.00411296
0.00411068
0.0158827
0.014607
0.0185486
0.0129947
0.0132511
0.0171456
0.0186982
0.0151662
0.0173652
0.016105
0.0132955
0.0174581
0.0142775
0.000484527
0.00407607
0.00415195
0.00219114
0.0033158
0.00350087
0.00334769
0.00392991
0.00373875
0.00355786
0.00354995
0.00289083
0.000847957
0.00349072
0.00392111
0.00260316
0.00474191
1.76749e-05
0.00718363
0.00784876
0.00255879
0.00901708
0.0130597
0.00857031
0.00827703
0.0173385
0.014978
0.0126182
0.0220767
0.0234812
0.0172891
0.0226888
0.02902
0.0162139
0.0168686
0.0208891
0.0237822
0.0180347
0.0224711
0.353398
1.1135
0.249162
0.444481
0.341952
0.859808
0.115404
0.11804
0.884905
0.112006
0.412252
1.2572
0.487601
0.351115
0.499926
0.343282
0.0853604
0.340016
0.649012
0.165281
0.75621
0.427138
0.223749
0.0946059
0.316168
0.70757
0.731262
0.00735212
0.0168835
0.0179594
5.39722e-05
0.00932518
0.666799
0.011452
0.553137
0.0457829
1.16917
0.127498
1.16061
2.51625
1.99607
1.04231
2.14988
2.56832
0.949971
1.80695
0.350764
0.99934
0.896208
0.620123
0.728663
0.969566
0.655119
0.661304
0.913446
0.884666
0.582189
0.392058
0.753832
0.703565
0.409735
0.460778
0.990922
0.846416
0.605162
0.0439662
0.0781957
0.127833
0.117085
0.0709913
0.132059
0.0578846
0.196943
0.0212052
0.0418529
0.356201
0.529175
0.331151
0.425222
0.232134
0.0906515
0.112609
0.141951
0.380193
0.104807
0.346151
0.397649
0.21705
0.189771
0.211693
0.146747
0.181244
0.28733
0.499783
0.420378
0.0871587
0.280687
0.452005
0.288421
0.0564135
0.00942678
0.0166638
0.00137069
0.00296325
0.00271118
0.0376154
0.00304832
0.0240444
0.033053
0.0384027
0.0406987
0.00356918
0.00409904
0.00305141
0.00475475
0.0130206
0.0123771
1.0428
1.35785
1.28804
1.33056
1.56272
1.19718
2.28243
0.23127
2.07628
0.817121
0.315633
0.04519
0.302541
0.461075
1.27727
0.189791
1.34538
0.833395
0.226588
0.368906
0.0504519
0.272707
0.00279048
0.00295907
0.00191362
0.00210577
0.0028324
0.0027765
0.00283118
0.00265677
0.00278869
0.00309915
0.00264797
0.0026981
0.00252805
0.00255002
0.00258836
0.00239128
0.00259263
0.00277965
0.0026664
0.00253868
0.00744322
0.0250677
0.0771974
0.00435304
0.00167053
0.00310654
0.0828697
0.000722429
0.0178748
0.00366566
0.00374024
0.0255416
0.00361347
0.00365502
0.0248561
2.79152
3.44362
2.8097
3.71122
3.65963
3.17572
3.78013
2.19294
0.0113576
0.00718947
0.0225116
0.019149
0.0197746
0.00530662
0.00969453
0.00584751
0.0192898
0.0146645
0.00568924
0.0141531
0.0811378
0.118095
0.972542
0.364315
0.088115
0.160582
0.896556
0.674138
0.880693
0.931194
1.31822
0.681577
1.08708
1.71764
0.52184
0.202163
0.206251
0.285145
0.00232846
0.00515754
0.00600812
0.00737294
0.00686499
0.00223887
0.00298498
0.00567107
0.00507268
0.00646184
0.00938295
0.00460525
0.00372794
0.00100647
0.00413259
0.00842907
0.0102404
0.00506302
0.0426756
0.043836
0.0674274
0.0700127
0.0591762
0.0643785
0.0339156
0.0422292
0.0500177
0.0780707
0.0688034
0.0456541
0.0980209
0.0471164
0.0683634
0.0709033
0.0647767
0.0419863
0.0410434
0.0678977
0.0702549
0.0376012
0.0145501
0.013187
0.0150974
0.0177364
0.0139147
0.0167917
0.0146711
0.0130784
0.0156651
0.0174731
0.0172512
0.0157963
0.0155467
0.0144152
0.0157441
0.0140278
3.82453
3.30114
2.96727
3.99899
3.24818
3.23893
2.44446
1.68102
1.07115
1.05601
1.12553
1.15123
2.66816
1.21477
1.58459
1.38454
1.89145
2.19705
0.0615721
0.129095
0.115018
0.0574482
0.0341427
0.0193319
0.0562234
0.0677958
0.0879895
0.0691449
0.037928
0.0286098
0.0242387
0.0291552
0.0553537
0.0379756
0.00857677
0.0036192
0.00279627
0.00278523
0.0041609
0.00296414
0.0029916
0.00301818
0.00219008
0.00202027
0.0117354
0.00867332
0.0160047
0.000532213
0.00262389
0.00214757
0.00243615
0.00265483
0.00639115
0.0126878
0.446661
0.438652
0.359497
0.206183
0.048447
0.216066
0.0226545
0.162679
0.212146
0.336071
0.0548881
0.0477687
0.117358
0.141067
0.0667593
0.0779114
0.0625483
0.0362792
0.0259614
0.039135
0.0575555
0.0524014
0.0149377
0.0395603
0.0177589
0.0168507
0.0136401
0.0231642
0.242803
0.16623
0.0949925
0.202156
0.305407
0.0584657
0.0398535
0.17641
0.198414
0.176083
0.0440542
0.031121
0.0965896
0.121091
0.0762927
0.0509561
0.0809392
0.0380988
0.0350648
0.0044083
0.0400001
0.0387741
0.0443998
0.0436102
0.0282559
0.0343484
0.0161701
0.0141655
0.0195072
0.0123514
0.0479943
0.0470227
0.0246884
0.0397103
0.036789
0.0380994
0.054202
0.0207756
0.00641741
0.0705991
0.0585415
0.0241544
0.0225132
0.0443206
0.00125599
0.0014089
0.00497518
5.41604e-05
0.000236342
0.00171382
0.000273256
0.00120645
0.0140402
0.0323211
0.0262551
0.00616797
0.0058511
0.0126494
0.0090645
0.0117122
0.00775263
0.00850185
0.00327376
0.0049135
0.000549485
0.00928805
0.00906708
0.00498753
0.0046651
0.00499033
0.00501386
0.00460278
0.00476494
0.0050562
0.00486335
0.00486268
0.00482644
0.00495849
0.00472911
0.00457916
0.00478068
0.0120706
0.012405
0.016716
0.0162468
0.0171403
0.0172745
0.0119652
0.0106771
0.0142588
0.015154
0.0123712
0.0153342
0.0132156
0.0138127
0.0473284
0.0565179
0.0604338
0.0627019
0.118924
0.118802
0.131982
0.144187
0.0546004
0.0911426
0.0847816
0.0867226
0.120399
0.0833579
0.0751344
0.379502
0.455693
0.0417295
0.0973504
0.141146
0.389634
0.478226
0.0164661
0.0564776
0.0284793
0.0614927
0.137235
0.0357447
0.0560349
0.027291
0.00735594
0.0400162
0.566895
0.641061
0.539316
0.512369
0.467957
0.479835
0.502382
0.60034
0.45367
0.438392
0.531834
0.501266
0.544207
0.459919
0.425159
0.495735
0.529681
0.531491
0.593038
0.560407
0.559283
0.540579
0.506338
0.509909
0.639808
0.672721
0.695024
1.03482
0.375549
0.460923
0.470066
0.670084
0.303974
0.358909
0.937705
0.787036
0.665601
0.109761
0.169711
0.0822646
0.0643185
0.219638
0.202807
0.207315
0.148705
0.217672
0.0593828
0.154582
0.0676066
0.206545
0.246127
0.151176
0.186318
0.369207
0.373159
0.1738
0.263991
0.371071
0.42044
0.411356
0.327907
0.284559
0.275287
0.280718
0.308066
0.134938
0.187245
0.346445
0.208426
0.197364
0.219976
0.00356012
0.00374064
0.00392137
0.00358
0.00334069
0.00369365
0.00333275
0.00337573
0.00359977
0.00338538
0.00334958
0.00333604
0.00337001
0.0034004
0.0033591
0.0033519
0.00335087
0.00335514
0.00330977
0.00336293
0.000466195
0.011202
0.00452902
0.00579378
0.0269001
0.0101903
0.00548829
0.0182191
0.00702907
0.005586
0.00388337
0.0332951
0.00662471
0.00608851
0.00603039
0.00602947
0.00667582
0.00622953
0.00689697
0.00693579
0.00642956
0.00621331
0.00612715
0.00621925
0.00601118
0.00693795
0.00672064
0.045363
0.0562172
0.0500318
0.0509951
0.248042
0.210005
0.171312
0.182443
0.228083
0.064684
0.0960301
0.0350005
0.0402551
0.1528
0.113706
0.0902728
0.0770353
0.0733378
0.105733
0.0863122
0.0697902
0.165209
0.160382
0.382376
0.280435
0.166037
0.231159
0.219809
0.312142
0.0871975
0.0183681