/*--------------------------------*- C++ -*----------------------------------*\
  =========                 |
  \\      /  F ield         | OpenFOAM: The Open Source CFD Toolbox
   \\    /   O peration     | Website:  https://openfoam.org
    \\  /    A nd           | Version:  10
     \\/     M anipulation  |
\*---------------------------------------------------------------------------*/
FoamFile
{
    format      ascii;
    class       volScalarField;
    location    "17";
    object      nut;
}
// * * * * * * * * * * * * * * * * * * * * * * * * * * * * * * * * * * * * * //

dimensions      [0 2 -1 0 0 0 0];

internalField   nonuniform List<scalar> 
75457
(
0.0596735
0.0655975
0.0527022
0.0213836
0.0582749
0.0240394
0.0624455
0.0200669
0.0288334
0.0284948
0.026986
0.0431358
0.0565994
0.0199455
0.0358985
0.0297756
0.00838608
0.0208992
0.0258205
0.00509028
0.0129457
0.00875613
0.033567
0.0345136
0.0213344
0.0390739
0.0394255
0.0414974
0.0367138
0.0553723
0.0382245
0.0489201
0.048766
0.0259286
0.0236056
0.0301918
0.027393
0.0483299
0.0459904
0.0289483
0.0294314
0.0274758
0.0284825
0.0402874
0.0620001
0.015704
0.00819518
0.0379531
0.0985041
0.0560496
0.0798759
0.0957824
0.0916306
0.0819124
0.0589894
0.0608478
0.12516
0.108517
0.10191
0.0154451
0.0914785
0.102277
0.0518498
0.0444079
0.0079453
0.041128
0.0131215
0.0452793
0.056935
0.0116104
0.0565463
0.012681
0.0467074
0.00371537
0.0561347
0.0180721
0.0179918
0.168185
0.178056
0.237632
0.109493
0.126853
0.195642
0.24537
0.175354
0.226066
0.22224
0.136073
0.189824
0.111277
0.253765
0.260104
0.145173
0.200192
0.160649
0.098742
0.0983128
0.101501
0.0141736
0.123137
0.0955499
0.11316
0.00535935
0.000178734
0.00101363
0.00135706
0.00898479
0.00216576
0.0101503
0.0427171
0.0669635
0.00808235
0.00827753
0.0525623
0.0125469
0.0846712
0.0116572
0.0495754
0.0520329
0.0136805
0.00312695
0.0106834
0.0114751
0.0290399
0.0579832
0.0357264
0.00774542
0.0681991
0.0737996
0.0129289
0.0247601
0.130674
0.0419633
0.0967867
0.155799
0.056724
0.0512815
0.136282
0.1245
0.00991512
0.0304468
0.0491372
0.0692667
0.0348041
0.0412923
0.109076
0.0828463
0.0637222
0.0679402
0.138279
0.0111941
0.118668
0.0550278
0.0477564
0.0678928
0.0719176
0.154197
0.00767715
0.0776652
0.123759
0.00788813
0.0580746
0.122535
0.000864327
0.000869567
0.000861253
0.000878597
0.000872244
0.000868445
0.000865004
0.000855811
0.000882886
0.000849242
0.000866867
0.000868713
0.000868302
0.0789048
0.0921033
0.115924
0.0968273
0.206084
0.00744442
0.180877
0.075252
0.00872179
0.10201
0.190328
0.0891591
0.0757538
0.0173747
0.120825
0.0745971
0.0972734
0.0710795
0.0692006
0.0136681
0.0266716
0.0539362
0.046655
0.0320745
0.0237093
0.0765519
0.0827977
0.00802225
0.0760407
0.0727371
0.0693234
0.130141
0.117479
0.117224
0.107296
0.104943
0.0128481
0.0133348
0.111565
0.0935772
0.0145283
0.103869
0.0146451
0.015389
0.0635723
0.106801
0.0772368
0.00980076
0.0831244
0.0835277
0.0138704
0.0673823
0.105956
0.0072455
0.046131
0.0447261
0.063355
0.0786783
0.0912083
0.105811
0.121627
0.0898148
0.0910484
0.0923503
0.0896912
0.113948
0.00935675
0.125449
0.0739688
0.0941586
0.104221
0.119507
0.104472
0.012418
0.103226
0.00965373
0.0712404
0.0105408
0.0899813
0.0074685
0.0653843
0.0288396
0.0418866
0.00887547
0.0315138
0.0344799
0.0916446
0.0580089
0.0929248
0.0175387
0.097199
0.0156081
0.0157786
0.0700152
0.0120127
0.0786881
0.144726
0.148078
0.089974
0.133711
0.0936289
0.077439
0.0110382
0.0833143
0.111316
0.00946768
0.0994004
0.00854035
0.103266
0.00781261
0.10044
0.0657479
0.0747839
0.0903995
0.0809985
0.0858131
0.141577
0.00986732
0.0655358
0.0124447
0.0678776
0.105474
0.106616
0.0105734
0.108314
0.0426089
0.0234849
0.0874702
0.0738423
0.181257
0.00942596
0.120253
0.144389
0.0140134
0.264768
0.127747
0.0824488
0.110866
0.0794184
0.0966404
0.0796916
0.117026
0.0482331
0.00657039
0.0646109
0.0902865
0.13214
0.029675
0.00830455
0.112605
0.095498
0.0891984
0.122806
0.0859103
0.0550857
0.0592602
0.0992853
0.00841318
0.0951352
0.0960281
0.135601
0.141321
0.0124955
0.110285
0.128685
0.0114491
0.116703
0.11439
0.0415214
0.082803
0.0845244
0.141281
0.0377267
0.198566
0.150302
0.0334736
0.126469
0.132965
0.112984
0.148241
0.124848
0.0200567
0.106982
0.140559
0.0185938
0.0141769
0.0199636
0.0137027
0.0869425
0.0893001
0.0836264
0.0931144
0.0941832
0.0896366
0.101565
0.0968363
0.0964167
0.103942
0.0136645
0.0876901
0.0879617
0.123739
0.00887588
0.121422
0.117005
0.0872279
0.030231
0.0253828
0.0686836
0.288085
0.101931
0.12377
0.0693559
0.069532
0.0938559
0.000888401
0.000914677
0.000848081
0.000847447
0.000923463
0.000964508
0.000879689
0.000931746
0.00090927
0.00114056
0.000837143
0.000841108
0.000814678
0.000823228
0.000847322
0.00083959
0.000828316
0.000838372
0.000897445
0.000902557
0.000857526
0.000816621
0.000793963
0.000801966
0.0008691
0.000857918
0.000856729
0.000799241
0.000789117
0.000826985
0.000838732
0.000910792
0.000904383
0.000850527
0.000847685
0.000885231
0.000869461
0.000853542
0.000853309
0.000911832
0.000901467
0.000876221
0.000895665
0.000869571
0.000861189
0.00085807
0.000856099
0.000893061
0.000915986
0.000864115
0.000884672
0.000891991
0.0008731
0.0522625
0.0246366
0.0257428
0.0236374
0.0249418
0.0452838
0.0224183
0.0273885
0.0192927
0.0492856
0.019155
0.019095
0.0201307
0.0217043
0.0169528
0.0473129
0.042043
0.0373597
0.051123
0.023164
0.0312746
0.0322442
0.0592197
0.0252269
0.0311556
0.0296435
0.0428913
0.035298
0.0541885
0.0301743
0.026957
0.00858365
0.00359955
0.00530622
0.0206656
0.0194845
0.0127782
0.0049863
0.00490302
0.00498241
0.00613731
0.00376343
0.01217
0.0191551
0.0188492
0.0225922
0.0530932
0.0242111
0.0154225
0.0150684
0.000877836
0.000880458
0.000884945
0.000886926
0.000876924
0.000916513
0.000916165
0.000834193
0.000866269
0.000908531
0.000902366
0.000949549
0.000912999
0.00086747
0.000862116
0.000866393
0.000842613
0.000839144
0.000841022
0.000844861
0.000845121
0.000835947
0.0008529
0.000847191
0.000846215
0.000847345
0.00085947
0.000847433
0.000850813
0.000849026
0.000854765
0.000862947
0.000853681
0.000952883
0.000983882
0.000970982
0.00101061
0.00101051
0.000991749
0.000747757
0.0014448
0.000933256
0.00100653
0.000859439
0.000984174
0.000956713
0.000986437
0.000925492
0.000963155
0.000769404
0.102612
0.08612
0.0927232
0.0977383
0.0883658
0.114117
0.115152
0.124056
0.0926964
0.100888
0.0908116
0.100451
0.135567
0.103743
0.133624
0.082109
0.1091
0.113537
0.022675
0.0244763
0.0290629
0.0350815
0.0146281
0.0396417
0.0247224
0.0264404
0.0281207
0.0456574
0.0299934
0.0303618
0.0295254
0.0166562
0.044335
0.0413796
0.0506212
0.0342582
0.0528136
0.0520942
0.0551519
0.043662
0.0391624
0.052769
0.0543764
0.0561464
0.0435358
0.0294498
0.0313748
0.0538298
0.035145
0.0459495
0.000917559
0.000919881
0.000921961
0.000985196
0.00103342
0.00092038
0.000892201
0.000965606
0.000946289
0.000947942
0.000852046
0.00102687
0.0695202
0.0521931
0.0903128
0.0435084
0.0818457
0.0682975
0.0682708
0.0713089
0.083807
0.0294754
0.0224287
0.0248363
0.0261464
0.022033
0.0248451
0.024565
0.00966206
0.0348685
0.00550588
0.0339039
0.0578382
0.0553817
0.0599902
0.0507916
0.0438873
0.0355216
0.0248712
0.0159381
0.0459463
0.02158
0.0244549
0.0301581
0.0015568
0.00118711
0.0111784
0.00200337
0.00048944
0.0153978
0.0117345
0.00376194
9.22258e-05
0.000812958
0.000190577
0.000489903
0.000865128
0.000741228
0.00209875
0.0153944
0.0139639
0.0136682
0.00462559
0.0575686
0.0471964
0.0338709
0.0722696
0.0453544
0.0601004
0.0471478
0.028301
0.0430266
0.0274498
0.0660361
0.0552309
0.0482114
0.0484124
0.10504
0.117195
0.100182
0.101936
0.104998
0.102764
0.0806827
0.0947497
0.115968
0.0798412
0.0819651
0.117588
0.0890814
0.0796595
0.0870376
0.0833409
0.0825519
0.0845703
0.0401175
0.0703096
0.078143
0.00587495
0.0223084
0.0617138
0.0363877
0.0110721
0.0197792
0.0829842
0.0680218
0.199762
0.202246
0.199615
0.111296
0.153951
0.207944
0.206046
0.1641
0.191663
0.189703
0.198037
0.148894
0.148955
0.19915
0.155242
0.184757
0.196815
0.184975
0.176063
0.12842
0.166076
0.0133837
0.0098429
0.0292239
0.0220002
0.0247842
0.0116087
0.0193997
0.0194447
0.0192911
0.0472723
0.0550147
0.0630507
0.0103407
0.0552063
0.0739453
0.0456441
0.0614815
0.0161197
0.0548955
0.0626322
0.0424513
0.0557784
0.0607879
0.0796156
0.0476639
0.0425099
0.0726254
0.060675
0.279178
0.302833
0.227138
0.238554
0.248615
0.250536
0.238721
0.219001
0.207801
0.245036
0.209556
0.22738
0.215624
0.0253808
0.029905
0.00922506
0.0114751
0.00986704
0.00902506
0.0146333
0.0179545
0.0461999
0.0203666
0.0323213
0.0345478
0.0107159
0.0109321
0.0332573
0.0199838
0.0337047
0.0329703
0.0252364
0.0394447
0.0460298
0.0215556
0.0279529
0.0103195
0.040233
0.0140741
0.0108288
0.0425202
0.0436277
0.00841405
0.031828
0.0341715
0.027833
0.0262587
0.0434739
0.0130333
0.0229489
0.0588577
0.0398491
0.0183648
0.00285518
0.00638427
0.0415196
0.0593816
0.0469433
0.044442
0.0449752
0.0560652
0.0434779
0.0551767
0.0421063
0.0290531
0.0281456
0.0422568
0.0457173
0.0553228
0.0294077
0.0321112
0.0377469
0.055844
0.0541855
0.0412206
0.0452048
0.04501
0.118319
0.0893599
0.0289652
0.046478
0.0568984
0.0515338
0.0466747
0.0496858
0.0538724
0.124418
0.14005
0.124876
0.0623948
0.0768297
0.046686
0.119833
0.101686
0.0138657
0.0141724
0.00955131
0.0104209
0.0115946
0.00949228
0.00791697
0.0110559
0.00985089
0.0132784
0.0142419
0.00764531
0.0138198
0.0139206
0.000861175
0.000794697
0.000807784
0.000870161
0.000843071
0.000814387
0.000830986
0.00084888
0.000899089
0.0009014
0.0410798
0.0314811
0.0437503
0.0533936
0.0223537
0.0194748
0.0505133
0.0608222
0.026004
0.0432578
0.044623
0.0443797
0.0474373
0.0190094
0.0473355
0.0442922
0.0133604
0.110309
0.114026
0.11004
0.171773
0.164109
0.137288
0.161187
0.15748
0.167639
0.180785
0.102539
0.104386
0.123221
0.116288
0.145755
0.16606
0.15675
0.113969
0.119718
0.127206
0.000517405
0.00076868
0.000769357
0.000467185
0.000962432
0.00549377
0.00583412
0.00109332
0.000762228
0.000703215
0.00566563
0.00701817
0.000423039
0.00362894
0.00467772
0.00779495
0.210885
0.279231
0.352537
0.31715
0.154748
0.241723
0.145163
0.200921
0.268704
0.276517
0.163596
0.193451
0.222561
0.0295064
0.0380727
0.0377091
0.0268077
0.0240956
0.0253834
0.0360325
0.030973
0.0266827
0.0277278
0.018554
0.026717
0.0107217
0.0274514
0.0237197
0.0140121
0.0290619
0.0267293
0.0132462
0.0121583
0.0118744
0.0142149
0.000281193
0.000416282
0.000685657
0.000432201
0.00040332
0.00676802
0.0261678
0.00103048
0.00972634
0.0615696
0.0687751
0.0389547
0.0362601
0.0416655
0.0158122
0.0428254
0.049994
0.0416221
0.0187859
0.0184905
0.0395257
0.00973147
0.0230213
0.0198729
0.0171649
0.0174203
0.024396
0.0167783
0.220191
0.144038
0.214939
0.206175
0.184581
0.203433
0.12811
0.224631
0.168206
0.215423
0.214339
0.219605
0.213012
0.175299
0.208967
0.157239
0.0158814
0.033637
0.0290699
0.0170655
0.00248819
0.00424147
0.0060036
0.00266396
0.00244592
0.00226895
0.0190429
0.0131189
0.00411588
3.12159e-05
0.00643217
0.00490741
0.0223999
0.145643
0.0840735
0.128493
0.0252545
0.135451
0.0850215
0.0635712
0.0770637
0.0773451
0.0829709
0.107486
0.164799
0.175231
0.0902471
0.0960695
0.0981667
0.0975801
0.0854589
0.173851
0.00200191
0.00121274
0.00100609
0.000920072
0.00114613
0.000815824
0.000847866
0.000907458
0.000960125
0.00186937
0.0022481
0.00125749
0.00116286
0.000845332
0.00217405
0.0128369
0.0140935
0.023831
0.0323913
0.0404303
0.0381876
0.0424988
0.0203884
0.0557414
0.0699274
0.0650222
0.035033
0.0741963
0.0719518
0.00675569
0.0108803
0.00521005
0.00616718
0.00560375
0.0083644
0.0039096
0.00214234
0.00839803
0.00220711
0.00476626
0.00218618
0.00321571
0.00209561
0.00170207
0.00183555
0.0311119
0.033126
0.027331
0.0272761
0.0620818
0.0626164
0.0192818
0.0423071
0.040311
0.0234881
0.06304
0.0533599
0.0650465
0.0512206
0.05469
0.063522
0.0670299
0.065104
0.0635888
0.00434365
0.0165319
0.00915354
0.00827181
0.00480576
0.030813
0.0111383
0.0153314
0.0189204
0.0144029
0.0047609
0.00552287
0.00792052
0.00590263
0.0207219
0.0172381
0.0170021
0.0345683
0.0259815
0.0302989
0.0149565
0.0210208
0.0368644
0.0254422
0.0228895
0.00193662
0.00165386
0.00146372
0.009635
0.000522357
0.000859253
0.00345295
0.0030352
0.00166232
0.00145831
0.00343134
0.0038951
0.00158776
0.00313187
0.00112388
0.000878447
0.00091063
0.00102855
0.00417658
0.00108904
0.00740011
0.00672557
0.00543873
0.0103325
0.00800657
0.00784263
0.0205561
0.00757454
0.020459
0.0234655
0.0184451
0.0130167
0.110593
0.163243
0.0138083
0.1648
0.069418
0.101577
0.070278
0.00990847
0.0115759
0.092468
0.0822764
0.0780851
0.0131759
0.0960154
0.0968533
0.0772169
0.097591
0.0868535
0.088537
0.0925222
0.0933276
0.0911357
0.0875913
0.0924556
0.0929769
0.101675
0.0154365
0.0927325
0.01763
0.0928219
0.0915983
0.0915124
0.0866427
0.0907293
0.113415
0.105072
0.110764
0.0224418
0.0386301
0.0139041
0.0219992
0.0130655
0.0124718
0.00968223
0.0140525
0.012062
0.01188
0.0179966
0.00907872
0.010256
0.0110037
0.0107229
0.0084247
0.211751
0.179337
0.165416
0.16097
0.0756856
0.0813044
0.232825
0.105795
0.0918275
0.113343
0.0958753
0.12422
0.0538258
0.102549
0.0169432
0.101447
0.0142059
0.0646478
0.0253239
0.0977041
0.0230883
0.116342
0.0763801
0.0844903
0.0944557
0.0724948
0.114847
0.0144843
0.106595
0.0457735
0.0795565
0.0856698
0.0159379
0.0807247
0.112547
0.103295
0.107385
0.092562
0.0717947
0.15273
0.00997577
0.0542274
0.0676979
0.0142386
0.0670775
0.0854727
0.0502956
0.12108
0.0153269
0.133369
0.0674352
0.09875
0.013139
0.0821061
0.0572501
0.100347
0.0591061
0.0946122
0.0148887
0.09582
0.061986
0.066499
0.0846494
0.0898196
0.0689535
0.067088
0.0754999
0.0694847
0.0415499
0.055726
0.0489521
0.0716318
0.0726569
0.0304312
0.0346847
0.0362424
0.0626178
0.0763588
0.0481033
0.0545292
0.035077
0.0659927
0.068228
0.019273
0.0214554
0.0108876
0.00908184
0.010536
0.0118786
0.0258958
0.0246855
0.0123587
0.0158325
0.0121915
0.0695942
0.0829118
0.0537184
0.000912255
0.00090337
0.000915837
0.000962861
0.00090973
0.000879855
0.00327464
0.00362196
0.00550398
0.00284704
0.000130128
0.000997597
0.00138871
0.000814376
0.00253545
0.00236569
0.00717608
0.00245182
0.000566513
0.000683552
0.0393291
0.0579923
0.0542876
0.0443807
0.0279806
0.0356784
0.0226413
0.0100181
0.0510531
0.0667252
0.0533261
0.0209051
0.0233508
0.0111056
0.0329082
0.0309155
0.0333363
0.0386914
0.0336812
0.00545912
0.00297463
0.00437429
0.00366389
0.0411958
0.0498086
0.020967
0.0274846
0.0114843
0.00517944
0.030105
0.0103828
0.00592371
0.023275
0.0432539
0.0260689
0.020754
0.0264503
0.0198124
0.0273341
0.0578776
0.054148
0.0815578
0.0583155
0.0809934
0.0897069
0.088945
0.103054
0.0974269
0.10747
0.0887417
0.0794214
0.101019
0.0890073
0.0971631
0.0893101
0.070825
0.0819175
0.0879304
0.231266
0.239114
0.221346
0.341981
0.165539
0.124867
0.218662
0.205119
0.267515
0.1821
0.172114
0.191915
0.160446
0.242384
0.318042
0.212712
0.000961143
0.000974081
0.00102927
0.00114865
0.000998192
0.000979155
0.00166045
0.000964426
0.00109368
0.000757629
0.000973339
0.000948207
0.00101745
0.00104128
0.00110088
0.00110478
0.00107257
0.00101003
0.000998623
0.00103558
0.091767
0.105214
0.0769632
0.100342
0.073742
0.0786293
0.0437681
0.0619907
0.0939995
0.0807472
0.0107989
0.101412
0.0521057
0.0525586
0.0819714
0.0762737
0.0107519
0.0837347
0.013365
0.0741415
0.000715897
0.0011883
0.00132962
0.000983333
0.000885751
0.000944428
0.00101629
0.0009902
0.00104069
0.000994254
0.00093982
0.00106822
0.00105234
0.000770932
0.00106378
0.00094542
0.00141967
0.157193
0.0910724
0.143365
0.0130123
0.0920889
0.11001
0.0957721
0.113172
0.0195201
0.109986
0.249771
0.0756978
0.00098936
0.000905532
0.000593994
0.000283902
0.000873228
0.000719724
0.000704432
0.000491189
0.000354311
0.000899805
0.000702658
0.000369016
0.00444175
1.95044e-05
0.00169836
8.09109e-05
0.00241791
0.00811821
7.20122e-05
0.00502782
0.00712432
0.0283842
0.026089
0.00126626
0.00200722
0.0391958
0.0300021
0.0417789
0.00169179
0.00386693
0.00622179
0.0013997
0.00313402
0.00372288
0.0014473
0.0122051
0.00366187
0.0054388
0.00179135
0.0102534
0.0289458
0.00772792
0.013502
0.0186851
0.0568458
0.00234465
0.00309325
0.0434468
0.0656729
0.0075695
0.00505701
0.0192358
0.0410041
0.013612
0.0242115
0.0296319
0.0311158
0.0172408
0.0133347
0.0330196
0.0277488
0.0241131
0.0126223
0.00407708
0.0218598
0.0108889
0.0101462
0.00344219
0.00475413
0.00741434
0.00919043
0.0159073
0.000697553
0.00137981
0.000157871
0.000961053
0.0207634
0.0197225
0.00291274
0.000354403
0.00169045
0.0116562
0.0207514
0.0209267
0.00169903
0.000428744
0.000717249
0.018835
0.0108285
0.0630917
0.0515289
0.0176691
0.0573006
0.0451475
0.0332904
0.0163326
0.0013732
0.00020671
0.00208865
0.00742027
0.000694072
0.000960189
0.000971037
0.000441696
0.00148539
0.000961269
0.0009337
0.000978662
0.000975797
0.000569516
0.000557037
0.000890898
0.000911922
0.00103632
0.000778396
0.000743451
0.00103884
0.00083207
0.0152052
0.0119356
0.011772
0.0205105
0.012555
0.0390271
0.05192
0.0172553
0.0202093
0.0251099
0.0233481
0.0327525
0.0255773
0.0212408
0.125798
0.097699
0.0276492
0.172096
0.0603348
0.0571151
0.0407071
0.0145324
0.0188746
0.0555225
0.0529305
0.0292625
0.0287265
0.0294925
0.0170132
0.0211198
0.0313718
0.0205682
0.0182953
0.0254547
0.0156874
0.0101254
0.02636
0.0369468
0.0267119
0.0262313
0.0991413
0.114274
0.123455
0.113829
0.098324
0.115171
0.118509
0.120355
0.0982427
0.11748
0.10727
0.11295
0.124713
0.132225
0.125276
0.124526
0.090894
0.084911
0.0871018
0.0921158
0.105313
0.0981195
0.10685
0.13119
0.0945815
0.133084
0.0143587
0.0917113
0.0891704
0.0932092
0.104236
0.107687
0.0910241
0.112506
0.0198468
0.0885948
0.101449
0.0214751
0.103186
0.0204491
0.0963835
0.0930509
0.0855214
0.0789447
0.0181114
0.102939
0.0926531
0.0647503
0.0773944
0.106462
0.0694454
0.0969637
0.0938893
0.0659274
0.064433
0.0581949
0.0997204
0.176801
0.152622
0.167718
0.103471
0.128948
0.118212
0.0975596
0.142209
0.138658
0.11826
0.145002
0.138545
0.113146
0.128918
0.024732
0.119588
0.107066
0.113771
0.0211551
0.101472
0.121717
0.108576
0.114421
0.0471823
0.0522304
0.0565779
0.0872427
0.0781003
0.131524
0.0937714
0.0864347
0.0508165
0.0699268
0.0990645
0.0703279
0.0106809
0.00991576
0.0679277
0.0718718
0.073612
0.013672
0.107225
0.0784969
0.0867918
0.121205
0.108307
0.0114108
0.0760874
0.0716974
0.0634268
0.0985537
0.096561
0.0727915
0.0139984
0.0904338
0.098296
0.0901653
0.0634765
0.106894
0.124877
0.0644866
0.0636434
0.103628
0.09126
0.0805132
0.0113138
0.11822
0.0830042
0.0684728
0.0678852
0.084975
0.0713484
0.158762
0.115523
0.203524
0.171052
0.115572
0.161142
0.178784
0.139843
0.155185
0.183907
0.131036
0.128661
0.204603
0.161816
0.129268
0.175215
0.182983
0.0385302
0.0439609
0.044511
0.0444964
0.0443289
0.0469457
0.0432286
0.0507243
0.0384312
0.0385724
0.0400315
0.0477279
0.0407884
0.0457491
0.0436901
0.0449444
0.0423199
0.0413889
0.0423534
0.0495836
0.0457175
0.043604
0.0433269
0.039268
0.0316747
0.0352762
0.0435181
0.0224608
0.0161708
0.0350937
0.0233594
0.0117398
0.00967576
0.0163952
0.0154968
0.00924035
0.015757
0.0141104
0.0128894
0.0146725
0.232211
0.185114
0.191777
0.186439
0.185961
0.185845
0.274166
0.174697
0.176128
0.259864
0.195623
0.185781
0.195431
0.191531
0.26542
0.194815
0.272363
0.0311241
0.006078
0.0344453
0.0883008
0.0858692
0.00782415
0.0238879
0.0215322
0.00341781
0.056523
0.0805777
0.0945787
0.0615577
0.0623265
0.0888866
0.101279
0.0408252
0.038773
0.0446407
0.0442643
0.0525566
0.047944
0.0458131
0.0964467
0.0995794
0.0498034
0.0393083
0.0584657
0.0850851
0.0938476
0.0850277
0.096657
0.0872762
0.0965979
0.0815058
0.014822
0.0973821
0.013609
0.0722546
0.0852338
0.068577
0.0200224
0.0175445
0.0207462
0.0172034
0.0143142
0.0194807
0.0166157
0.0159825
0.019628
0.0224355
0.019347
0.0184169
0.0163856
0.01856
0.0383084
0.0491919
0.0372448
0.0377184
0.0584357
0.0343266
0.037549
0.0526752
0.0761503
0.0623253
0.0847922
0.0428981
0.0490269
0.062756
0.0331684
0.0763004
0.0755131
0.0243134
0.0497516
0.200389
0.0541751
0.261351
0.305285
0.0804204
0.114096
0.154846
0.270613
0.246519
0.219352
0.16862
0.283403
0.253582
0.235096
0.00144434
0.00169434
0.000972142
0.0011905
0.00128376
0.00111235
0.00119079
0.00113292
0.000940387
0.000894255
0.0933131
0.0119542
0.0873724
0.0147036
0.0548016
0.0502112
0.0416051
0.0609569
0.073984
0.0743036
0.0866168
0.0933879
0.0878763
0.0476903
0.0505129
0.0248745
0.0745144
0.0863432
0.0469747
0.0500566
0.0435144
0.0466489
0.221287
0.0835551
0.171395
0.110371
0.203454
0.0366901
0.0777714
0.237873
0.187646
0.0378232
0.106253
0.0397257
0.0782754
0.233785
0.209864
0.0852311
0.059673
0.25636
0.000870847
0.000870786
0.000873441
0.00087355
0.000872817
0.000869164
0.000873594
0.000871088
0.000866698
0.000865583
0.000876294
0.000871083
0.000867991
0.000869232
0.000878211
0.00088714
0.000872466
0.000877604
0.000867319
0.123819
0.114037
0.0820154
0.102215
0.0627934
0.056585
0.0875215
0.100894
0.0626103
0.104241
0.0815528
0.111037
0.110096
0.0642271
0.111008
0.100391
0.110745
0.044973
0.000947893
0.000964814
0.000971589
0.000934721
0.00095359
0.000971157
0.000977113
0.000977748
0.000965878
0.0010287
0.00099422
0.000981967
0.00099497
0.0010098
0.00102787
0.00102215
0.000858363
0.000843802
0.000842289
0.000865596
0.000880093
0.000858785
0.000852049
0.000857979
0.000827174
0.000826165
0.000873871
0.000833062
0.000873733
0.000844443
0.000879723
0.000853176
0.000853931
0.000853025
0.000876641
0.000860521
0.00085198
0.00088908
0.000869222
0.000865908
0.000845041
0.000897743
0.000899822
0.000864259
0.000885257
0.000970148
0.000855968
0.000931865
0.000863869
0.000546847
0.00085632
0.000893982
0.000868145
0.000876464
0.000920931
0.000749496
0.00086517
0.000856431
0.000886355
0.000848296
0.000886653
0.000890064
0.000884967
0.000879699
0.000879289
0.00088076
0.000880782
0.000900696
0.000891803
0.000887056
0.000890057
0.00089141
0.000883763
0.000872899
0.000886766
0.000884762
0.000899702
0.000889033
0.000895732
0.000893606
0.0874354
0.0886214
0.082933
0.0537447
0.0685002
0.0613949
0.0837661
0.0717698
0.0735435
0.0472503
0.0477022
0.0731211
0.0670448
0.0719041
0.0783989
0.106733
0.0790975
0.0967987
0.0904241
0.096494
0.105516
0.0904899
0.0975804
0.0908986
0.10889
0.0967404
0.104974
0.0925612
0.0479014
0.0483094
0.0477037
0.0823944
0.0947282
0.000908799
0.000909256
0.000896482
0.000946975
0.000913355
0.000909309
0.000863238
0.000886776
0.000887506
0.000879136
0.000882617
0.000895839
0.000897093
0.000892699
0.000877187
0.0716291
0.0573182
0.0542931
0.0519785
0.0855755
0.0526073
0.0681473
0.0819452
0.0938253
0.000882203
0.000889097
0.000883049
0.000881936
0.000893557
0.000881845
0.000880817
0.000887015
0.000886707
0.000874512
0.000870709
0.000854132
0.000868471
0.000886227
0.000881516
0.000868493
0.000844706
0.000853982
0.000897995
0.000886587
0.000885038
0.000833539
0.000722824
0.00105817
0.000622431
0.00075665
0.00106748
0.00195739
0.000857443
0.00071251
0.000600235
0.000760715
0.000665128
0.000759561
0.000845671
0.000578922
0.000682579
0.000783756
0.000775652
0.00153625
0.000859303
0.00209843
0.000822057
0.000840847
0.000785129
0.000905543
0.000954706
0.000872048
0.000904308
0.000933324
0.000873169
0.000840072
0.000801942
0.000805352
0.000801593
0.000900387
0.000888199
0.000925451
0.00091594
0.000883167
0.000883424
0.0008899
0.000865687
0.000928365
0.000809052
0.000897645
0.000932754
0.000802339
0.00879026
0.0149213
0.014626
0.012064
0.00434115
0.0133073
5.24399e-06
0.000841478
0.0136002
0.00600835
0.0173968
0.0104454
0.00895754
0.00117913
0.00213951
0.00707863
0.0024172
0.00369993
0.0010554
0.00200696
0.00225142
0.002802
0.00218061
0.00751443
0.00214584
0.00404343
0.00177578
0.00177525
0.00157393
0.00183213
0.00247709
0.00178032
0.00201348
0.00428562
0.00203425
0.00286603
0.00419194
0.00226031
0.00287772
0.00284925
0.00273528
0.00212973
0.00207348
0.0022405
0.000885302
0.000884725
0.000952733
0.000880814
0.000877063
0.00104556
0.00089513
0.000898167
0.00087937
0.000892107
0.0010456
0.000893286
0.000856799
0.000848229
0.000859792
0.000857296
0.000816801
0.000855564
0.000861907
0.000861941
0.000850359
0.000821488
0.000868299
0.000835357
0.000859478
0.000858126
0.0656066
0.0463707
0.0541989
0.0666684
0.05952
0.0429928
0.0521625
0.0545669
0.0552531
0.069166
0.071454
0.0666854
0.0689072
0.0142975
0.00528513
0.00632161
0.00653817
0.00624666
0.0143522
0.00368741
0.0172893
0.00549454
0.00501443
0.00683797
0.00393905
0.00285208
0.00346234
0.00579357
0.00664319
0.00632629
0.0110992
0.0109072
0.0197502
0.00512661
0.00314643
0.0182543
0.0155772
0.0333269
0.0130346
0.0176746
0.0145886
0.00507691
0.0156017
0.00564285
0.00667657
0.00850156
0.00538038
0.0080215
0.00584048
0.0116239
0.00638572
0.00405852
0.00449154
0.0105032
0.00554277
0.00473332
0.00572957
0.00709327
0.194247
0.198241
0.188522
0.165515
0.206632
0.195495
0.223032
0.223266
0.217374
0.226891
0.244327
0.000837723
0.000828691
0.000836941
0.000838912
0.000833375
0.000836841
0.00083603
0.000832812
0.000833149
0.000832049
0.000836453
0.000838524
0.000833599
0.000591487
0.00157887
0.00034082
0.00556245
0.000495344
0.00114857
0.000573327
0.000626273
0.00114004
0.00139608
0.000969857
0.00108972
0.00108504
0.00101001
0.00175618
0.000920455
0.00108683
0.00102589
0.00154559
0.000925982
0.000887661
0.000958513
0.000732505
0.000774694
0.000652878
0.000447682
0.000986095
0.000693862
0.000678553
0.000919489
0.000672998
0.000780888
0.000785163
0.00084237
0.000845569
0.000795751
0.000757661
0.000838824
0.000826445
0.000857726
0.000840291
0.000854564
0.000842018
0.000864742
0.000856013
0.000837111
0.000830101
0.000842569
0.000846852
0.000932408
0.000852932
0.000862324
0.000927893
0.00092445
0.000939339
0.000914077
0.00091358
0.000933295
0.000942393
0.000925798
0.000935453
0.000930386
0.000917648
0.00093521
0.000913855
0.000117217
0.000968276
0.00105574
0.000545531
0.000813948
0.000904662
0.000875131
0.000981965
0.000929119
0.000906873
0.00091763
0.000685265
0.000206528
0.00090797
0.000964462
0.000646388
0.00105124
4.34511e-06
0.00154468
0.0017618
0.000635486
0.00374854
0.00540305
0.00356562
0.00337526
0.00710025
0.00619215
0.00506228
0.00882235
0.00966227
0.00731775
0.00901247
0.0114109
0.00685583
0.00698095
0.00878532
0.00979986
0.00731004
0.00911676
0.0803289
0.207462
0.0575483
0.0947777
0.072274
0.169248
0.030765
0.0324266
0.173992
0.0296422
0.0969991
0.228251
0.11149
0.0833164
0.117157
0.0845909
0.0230061
0.0784704
0.136221
0.0443992
0.157207
0.101429
0.0563442
0.0256587
0.0741156
0.145713
0.150404
0.00413308
0.0091337
0.0096456
3.09365e-05
0.0049396
0.082728
0.00137252
0.0647781
0.00718305
0.114657
0.0205858
0.101287
0.177495
0.13622
0.0864164
0.0916028
0.185
0.083866
0.133382
0.0451002
0.162442
0.148165
0.100822
0.120668
0.19411
0.169291
0.149868
0.160601
0.173993
0.149086
0.109826
0.13568
0.115948
0.111969
0.125425
0.230097
0.188705
0.144197
0.00892049
0.0123412
0.0174918
0.00984095
0.00729888
0.0102996
0.00440967
0.0123527
0.00416863
0.00953052
0.0187848
0.0169241
0.0154827
0.0122057
0.0132124
0.0102868
0.0141173
0.0070912
0.02069
0.0151732
0.0699113
0.0763753
0.0507975
0.0464064
0.0501196
0.0376561
0.0451002
0.0631001
0.0883082
0.0794965
0.0241998
0.0641489
0.0875012
0.0643289
0.010889
0.00235073
0.00341734
0.000289083
0.000800846
0.000719695
0.00809468
0.000879839
0.00525018
0.0065655
0.00713956
0.00791132
0.00100917
0.00120037
0.000856735
0.00131542
0.00318789
0.00306417
0.106483
0.136431
0.129346
0.143146
0.167768
0.124311
0.203157
0.0253328
0.210591
0.0764958
0.0460543
0.00662698
0.0434058
0.0578653
0.124901
0.0221653
0.131562
0.0827045
0.032142
0.0450046
0.0096675
0.0382036
0.000767736
0.000816532
0.000531129
0.000590557
0.000793862
0.000792433
0.000789377
0.000732991
0.000775855
0.000862108
0.000747969
0.000772267
0.000724384
0.000707999
0.000723108
0.000678112
0.000729125
0.000787915
0.000773967
0.000726637
0.00130044
0.00422908
0.0109702
0.000936449
0.000297502
0.000654176
0.0116016
0.000141888
0.00326011
0.000821906
0.000826537
0.00469533
0.000772847
0.000808262
0.00510334
0.282623
0.395907
0.313562
0.426808
0.365856
0.408129
0.407959
0.227087
0.00374637
0.00228368
0.00721868
0.00609046
0.0063731
0.00171287
0.0030904
0.00181228
0.00630064
0.00479163
0.00179717
0.00459642
0.0227026
0.0321614
0.0987403
0.0673912
0.02587
0.0397167
0.0959754
0.0969319
0.0918996
0.0924849
0.0144657
0.0906342
0.094156
0.018887
0.0727458
0.0452477
0.0463169
0.0583509
0.000777537
0.00169554
0.00199747
0.00243994
0.00222508
0.000736642
0.000994819
0.00179056
0.00164375
0.00209959
0.00299888
0.00144445
0.00122034
0.000330922
0.00134588
0.00265348
0.00317426
0.00163016
0.0226436
0.023232
0.0330268
0.033534
0.0303482
0.0315902
0.0181528
0.0223812
0.0258333
0.0361491
0.0341785
0.0237217
0.0415376
0.0240613
0.0340709
0.0350277
0.0318651
0.0219011
0.0213371
0.0324352
0.0347031
0.0197438
0.000919393
0.00091278
0.000925106
0.000937029
0.000917335
0.000929051
0.000922124
0.000910918
0.000919334
0.000927094
0.000933086
0.000926769
0.000926962
0.000921266
0.000925937
0.000919316
0.535977
0.482692
0.391438
0.490603
0.39487
0.545992
0.298908
0.268586
0.204385
0.195645
0.199849
0.206953
0.469014
0.234485
0.256376
0.203168
0.356811
0.327282
0.0271125
0.0475342
0.0430145
0.0250625
0.0158787
0.00943659
0.0231558
0.0270595
0.0366211
0.0302914
0.0173557
0.012961
0.0114485
0.014086
0.0248873
0.0178997
0.00219948
0.000935132
0.000708295
0.000716131
0.00111375
0.000761358
0.000772053
0.000776213
0.000559891
0.000518166
0.00303809
0.00221519
0.00410096
0.000137307
0.000686011
0.000562311
0.000643287
0.000701588
0.00171266
0.00339055
0.0506717
0.0509253
0.0471577
0.0312375
0.00966089
0.0302932
0.00394542
0.0260781
0.0316517
0.0422641
0.0108018
0.00984707
0.0200135
0.0232418
0.0125197
0.0138787
0.0164211
0.00936477
0.00767247
0.011292
0.0185137
0.0150399
0.005299
0.0118707
0.00622358
0.00637823
0.00488977
0.00876962
0.0680092
0.0554246
0.0380773
0.0622321
0.0764276
0.0273823
0.0193068
0.0514805
0.061653
0.0595263
0.0217968
0.0160281
0.0366154
0.0391873
0.0336867
0.0236186
0.0310396
0.0134809
0.0123634
0.00154752
0.0130153
0.0124291
0.0144787
0.0139281
0.0100633
0.0119219
0.00600719
0.00512218
0.00698078
0.00449197
0.0160947
0.0157983
0.00905156
0.0138271
0.0124889
0.0103197
0.0137844
0.00618495
0.0020586
0.0160748