/*--------------------------------*- C++ -*----------------------------------*\
  =========                 |
  \\      /  F ield         | OpenFOAM: The Open Source CFD Toolbox
   \\    /   O peration     | Website:  https://openfoam.org
    \\  /    A nd           | Version:  10
     \\/     M anipulation  |
\*---------------------------------------------------------------------------*/
FoamFile
{
    format      ascii;
    class       volScalarField;
    location    "17";
    object      omega;
}
// * * * * * * * * * * * * * * * * * * * * * * * * * * * * * * * * * * * * * //

dimensions      [0 0 -1 0 0 0 0];

internalField   nonuniform List<scalar> 
75457
(
32.8751
33.9202
25.5217
20.0032
24.0295
28.9391
27.7516
34.7027
16.7316
16.6137
15.6912
18.9993
18.8501
16.8095
2.39775
2.37817
2.03738
2.3978
2.32467
2.05201
2.21496
2.23759
2.40779
2.38692
2.29897
2.57287
2.60169
2.21493
2.27819
2.3802
2.11713
2.39135
2.41819
2.02269
1.98192
2.07199
2.00436
2.49524
2.40599
2.01877
2.0676
1.99623
2.00663
2.77569
3.12657
2.44293
2.3429
2.7693
6.31026
3.52953
4.98084
5.80199
14.2846
4.80603
3.84049
4.03761
8.09538
8.98308
8.16142
15.7757
12.3279
6.78866
8.73
7.18733
7.06804
7.9973
6.67066
8.28988
8.4975
13.9324
8.2012
14.5467
7.76183
7.74046
8.06485
7.14731
7.59495
14.1408
10.057
6.74275
16.0171
10.3778
11.572
7.68298
5.67213
5.27247
5.94645
6.5505
12.1357
14.2985
7.31884
6.24251
12.2296
7.12967
5.6957
3.37828
3.67693
3.91241
24.084
6.85454
8.4126
11.0471
22.1375
20.009
39.614
41.1391
20.8255
18.6985
20.4335
7.23813
5.60739
15.71
15.6783
13.4183
5.31952
9.84824
22.1243
9.21638
8.61056
24.1968
6.03683
6.75552
6.69968
6.41736
7.6631
7.5836
15.3634
6.45515
11.4705
7.2004
6.85825
6.9224
6.55785
6.07775
3.33228
15.3429
7.04212
5.45934
5.72068
24.6965
4.40946
5.39731
6.65352
4.33976
4.56243
5.97764
7.1007
8.24525
17.9286
5.07251
31.9972
9.35726
5.10502
4.1304
8.99965
13.4942
4.31521
26.4832
5.32663
7.06992
27.0241
5.3767
8.12291
6.04523
6.26116
6.533
6.22516
6.40021
5.79294
5.79157
6.07552
6.29502
6.02218
6.14425
5.95971
5.82065
8.69367
7.92932
7.59351
11.6521
4.72608
22.3351
3.86672
12.1317
28.1916
5.16659
3.81359
9.61564
17.8836
39.5375
7.90537
7.89191
8.53796
13.0038
6.36243
24.6248
3.99485
4.58629
4.05144
4.38987
3.89479
7.45179
8.65358
12.8663
6.22454
7.15314
12.8788
11.7436
12.6278
12.7512
11.1698
11.4529
23.6727
26.4169
9.58866
11.0299
25.3058
11.0613
27.693
25.8305
26.4931
8.53489
12.1953
23.2965
10.6341
11.4011
27.7348
13.1713
7.86061
20.0597
5.04808
4.97535
19.7266
8.34562
9.57927
7.23793
9.34396
4.4959
4.79553
5.0365
5.28229
9.07876
21.6198
7.19933
16.5875
10.1432
6.99123
7.34276
10.9437
24.7886
10.5191
21.9126
9.79302
19.7316
8.07251
14.0825
6.31662
4.5625
5.31708
3.27021
3.76731
4.10834
4.64053
6.06384
10.0027
18.2852
11.5509
30.382
17.3565
20.0829
26.7892
17.2229
5.92838
6.06136
10.0735
6.12151
10.4986
11.4448
17.4143
10.1825
9.47683
16.1848
9.73795
15.3242
7.42493
14.6966
6.78471
4.17836
4.16678
5.45377
5.0383
5.4526
5.04481
17.4917
15.0438
23.4491
15.6128
8.34973
8.18975
21.8048
8.42959
8.29916
21.7116
3.33751
3.217
1.63911
21.7116
2.58092
2.30666
21.7116
1.36562
2.51619
4.32906
2.39052
8.62399
7.28945
4.42748
5.94922
8.0353
22.387
9.09978
4.13945
4.16214
11.4204
22.387
4.5101
4.64988
5.18447
8.15066
12.9695
11.0309
9.81234
11.2616
25.9158
5.67483
5.82985
8.76099
7.90447
31.3734
9.91426
8.42933
29.956
6.5832
5.873
18.5105
6.64187
10.5685
6.63156
18.5105
5.76582
5.90699
9.75813
6.52245
4.89799
9.04927
8.29972
10.193
27.4698
8.39253
5.61211
15.7628
22.9266
16.0806
22.4781
4.49613
4.20907
5.4885
5.13239
7.50937
6.51474
11.1679
6.31602
6.92935
8.81995
23.5215
12.8071
11.6398
7.74609
19.0563
6.65581
6.36787
7.06452
15.9208
15.9208
18.3669
4.19584
8.68538
8.8289
4.86756
4.29441
8.26265
4.52179
4.57267
4.42135
4.41127
4.58505
4.60623
4.51051
4.57275
4.59959
4.63723
4.52283
4.43089
4.51828
4.4853
4.44888
4.55869
4.44217
4.41612
4.36286
4.36151
4.44061
4.37683
4.4569
4.38907
4.49386
4.47616
4.36178
4.42552
4.40987
4.46072
4.4484
4.25671
4.32168
4.33618
4.37314
4.31456
4.34996
4.38527
4.43482
4.26095
4.30337
4.26144
4.25601
4.32238
4.36959
4.33622
4.41891
4.34437
4.36844
4.33926
4.37251
4.3288
4.35942
3.72475
2.83704
2.85331
2.84139
2.8365
3.53749
2.86502
2.84604
2.73365
3.80418
2.68488
2.78087
2.78295
2.83311
2.65115
3.41438
29.7475
19.8739
16.7152
19.8587
12.9534
13.1332
13.2103
15.0338
12.805
13.2181
29.5262
31.5591
27.5609
18.5198
13.612
10.6523
3.5717
3.51434
3.77446
3.91388
3.71094
3.62982
3.55989
3.51328
3.60171
3.63173
3.66245
3.85346
3.82691
3.60408
4.68746
3.72784
3.64783
3.65399
4.55595
4.6128
4.57853
4.50741
4.47783
4.51515
4.52856
4.54382
4.54208
4.52551
4.55671
4.62784
4.54425
4.5843
4.6069
4.62416
5.83129
5.59677
5.91684
5.59297
5.36338
6.01481
6.36139
6.03667
5.86401
6.03675
5.87913
5.75878
6.01486
5.73979
5.81152
6.24658
6.34035
4.71258
4.86715
4.67342
4.70429
4.62656
4.59468
4.68186
4.80522
4.60504
4.50196
4.72446
4.55819
4.49566
4.50827
4.57672
4.44417
4.62103
4.39019
3.87616
4.30983
5.09401
3.48682
4.48298
3.92687
4.37094
3.70675
3.54403
4.10887
5.16512
4.66445
3.90269
4.19384
4.01762
4.98763
5.17704
2.19987
2.17575
2.21603
2.4279
2.07074
2.51954
2.20799
2.18198
2.18788
2.64416
2.28682
2.18433
2.22287
2.12822
2.62715
2.59154
2.81235
2.55739
2.90484
2.88112
2.8604
2.68496
2.61103
2.91225
2.9353
2.89755
2.64653
2.51373
2.52804
2.79684
2.64323
2.73998
4.25257
4.269
4.29303
4.49929
4.54966
4.28858
4.29232
4.49511
4.42277
4.47031
4.2689
4.53244
3.99927
3.42501
4.32428
3.27677
4.22238
3.90878
4.17508
4.15885
4.17006
2.98232
2.87087
2.98197
3.31111
3.29934
3.00055
3.31636
2.04163
2.67742
2.01306
2.47365
3.67187
3.34788
4.45753
3.19949
3.11086
2.55105
2.29722
2.15071
3.96645
2.26399
2.40974
2.6676
3.64754
3.62721
3.65148
3.68508
3.8059
3.7023
3.64933
3.60278
3.58897
3.67732
3.7078
3.68049
3.69596
3.76372
3.76792
3.67971
3.64363
3.71767
3.59098
2.53306
2.50249
2.22845
2.82623
2.4643
2.74407
2.64847
2.3318
2.50636
2.18041
2.7065
2.5824
2.46279
2.47448
2.94275
2.71424
2.80287
2.88857
2.72289
2.79907
2.59857
2.52813
2.6036
2.41782
2.46237
2.71839
2.57394
2.51174
2.55978
2.34099
2.40087
2.5387
5.00776
6.21003
6.36842
3.93797
3.94327
5.38715
4.68873
3.33883
3.65567
6.9185
5.5664
6.46573
6.14453
7.16019
7.30165
6.72207
6.889
6.37152
6.52762
6.25803
6.27505
7.56167
9.29878
9.08846
7.91654
8.61578
8.48682
7.01542
6.96397
8.17951
7.95843
7.49168
2.73211
2.77205
2.99776
2.85879
2.86073
2.66378
2.79693
2.8271
2.80984
3.47843
3.89905
4.35209
2.61789
3.79638
5.17774
3.58122
4.41654
2.41626
3.25934
4.69669
6.32049
3.24668
3.60999
8.597
6.22411
3.97252
7.24565
4.15531
4.7859
4.52378
4.68594
5.28809
5.35313
6.07456
6.62659
6.9506
6.70471
5.70603
7.07996
6.35842
6.95705
2.08524
2.14051
1.87212
1.90169
1.9591
1.91117
2.03514
2.06094
2.48907
2.00063
2.18224
2.24821
1.86708
1.94278
2.32457
1.9351
2.17315
2.13957
2.06382
2.47321
2.5483
2.01565
2.61343
2.33005
2.80251
2.35594
2.33066
3.00944
2.85919
2.21601
2.59596
2.84014
2.64454
2.60955
2.95808
2.23705
2.42414
3.17642
2.70774
2.32097
2.08479
2.11269
2.82269
3.59102
2.4413
2.49821
2.95356
3.36958
2.45727
2.47522
2.5988
2.28712
2.29501
2.77767
2.8922
3.32287
2.34443
2.34002
2.58196
3.34188
2.53942
2.41471
2.68525
2.41643
4.1031
5.26276
2.2497
2.46294
2.72515
3.05965
2.44112
2.55909
2.93706
3.68424
4.30459
3.92386
2.62897
2.67221
2.39326
3.13487
2.7645
2.74478
2.72858
2.49608
2.5778
2.54772
2.44378
2.3645
2.54249
2.52517
2.61364
2.61011
2.37926
2.64934
2.67906
4.4456
4.73137
4.83916
4.53104
4.68605
4.73615
4.84783
4.60737
4.69776
4.81045
3.03678
2.67418
3.02347
3.392
2.5502
2.53342
3.34953
4.04199
2.60712
3.29709
3.16441
3.17449
3.55059
2.60058
3.4368
3.17803
2.53391
5.76398
6.07656
5.92354
6.28309
5.97393
5.67546
6.21464
5.91254
5.74531
5.70868
5.86299
5.74711
6.03266
5.73307
6.10716
5.59959
5.69583
5.51823
5.67625
5.53893
4.76743
4.83151
4.74785
4.77713
5.02178
5.15265
5.60131
4.91653
4.9232
4.79496
5.47899
5.53108
4.75746
4.86382
5.09215
5.81751
9.04685
7.55676
6.72741
7.3928
11.6263
9.0601
12.046
11.4211
9.40932
9.13252
11.8485
10.5321
10.1579
2.92566
3.14942
2.93213
2.77155
2.69843
2.75083
3.0952
2.97114
2.78415
2.80671
2.537
2.84344
3.85129
4.2536
3.98998
3.89602
4.1881
4.10073
3.76552
3.73436
3.70077
3.77096
3.79681
3.76593
3.85262
3.82513
3.91858
3.85054
4.02501
3.85378
3.84929
4.14743
4.13109
3.91232
3.90334
4.15787
3.06787
3.5669
3.96059
3.63899
2.85238
2.85729
3.51242
2.68377
3.08858
3.0325
2.78143
2.75924
3.05426
2.8395
4.54883
4.89476
5.39248
4.87193
4.69287
4.844
4.73071
4.64442
5.20584
5.09325
5.69129
5.50019
5.80974
5.91515
5.74159
5.32592
4.49533
4.9159
4.63424
4.40435
4.39638
4.48244
4.41677
4.38698
4.41548
4.50781
4.589
4.48186
4.56169
4.57005
4.80511
4.64522
13.512
11.7438
12.783
12.0263
14.4858
11.6737
5.81072
6.44137
5.94896
6.34686
6.12675
6.93041
8.86455
10.7883
11.1562
8.43437
10.3054
10.4258
6.87017
10.0746
6.67526
7.63094
7.34507
7.07427
6.83751
7.15327
7.73219
7.37584
6.89897
7.31303
7.38296
7.05747
7.49245
6.96455
7.13296
5.01257
5.33663
5.3245
5.36839
5.97922
6.34971
7.20998
6.0998
7.55422
7.99612
7.54432
6.72975
8.56197
9.06457
3.73737
4.13644
3.62913
3.72245
3.60035
3.80977
3.4255
3.23908
3.95583
3.47829
3.61567
3.23127
3.39005
3.22176
3.24644
3.19762
2.38932
2.43353
2.32946
2.35586
3.60173
3.68944
2.19358
2.87407
2.89935
2.1975
3.50099
3.30256
4.11835
3.24008
3.24909
3.76155
3.65417
4.38488
4.51335
2.67144
3.39057
3.0728
2.86167
2.7619
3.87126
3.18099
3.35574
3.59488
3.42828
2.60112
2.63256
2.93821
2.69144
3.56717
3.3458
2.77106
3.07746
2.8575
2.96636
2.63358
2.7403
3.07429
2.78558
2.78279
8.26014
7.18912
7.20238
8.12845
8.51556
7.54703
7.38213
7.57638
7.54358
7.47116
7.61394
7.44665
8.21876
7.98694
8.07466
8.3282
8.04103
7.83766
7.4003
7.85863
3.11809
3.07949
3.04288
3.01225
3.0459
3.20326
2.95807
3.04598
3.18093
3.05367
3.02209
3.01602
4.78613
7.08891
24.539
5.41913
18.8063
6.39622
11.4641
20.9181
22.5207
5.15012
11.6074
14.3981
24.1323
6.68113
11.466
3.96904
8.40065
5.28848
4.73864
8.27895
9.76912
7.70538
4.68743
3.99327
3.91968
12.5402
14.5572
13.8569
15.4404
3.88085
4.03687
3.87855
3.73456
3.85861
5.68715
6.41279
5.30404
1.99779
2.2835
1.87058
1.9855
1.86291
1.8288
1.81265
1.85627
1.84749
1.85018
1.96738
1.88031
1.87099
1.85402
1.85675
1.87131
5.56212
5.61118
5.99634
5.98999
6.68464
6.67495
5.69323
6.8209
7.05355
7.63328
8.34492
7.45547
3.83191
11.6984
13.694
9.72212
12.5381
4.60014
2.80734
9.66111
2.89381
8.53536
16.8022
4.80739
8.18438
4.11051
9.96971
19.0088
10.1423
2.72614
4.42856
5.21914
19.9729
4.53771
6.64593
8.07022
12.7585
4.15167
8.05164
3.71546
21.1965
5.85574
7.10186
25.3731
5.36958
8.4727
7.7778
7.71026
16.2494
5.58674
6.54459
11.1617
15.1947
4.45242
3.95235
8.64463
3.85649
8.75079
16.1824
8.5406
3.46828
3.85861
15.0246
9.30818
3.80872
3.53841
4.37789
3.65578
2.61343
3.07308
2.77766
3.73525
3.87602
2.34421
2.47561
2.5003
3.45482
4.27588
2.84993
3.08302
2.47138
3.39682
3.54281
4.34446
3.67744
4.09456
4.13072
3.9132
3.9506
4.67861
2.79006
3.62839
4.25603
3.98096
5.95838
8.52453
5.25997
11.8944
11.5779
10.9853
10.7648
12.2766
10.6209
10.1895
10.7778
11.1108
11.0537
12.3956
12.9165
10.2062
10.435
10.8145
11.2211
10.9107
12.3868
11.6162
10.8037
8.15515
10.1631
6.95165
6.77816
10.9377
10.9633
18.2217
15.8839
6.61704
7.0116
8.07114
10.392
11.4637
15.4132
8.13419
10.1712
6.52205
6.59872
7.36396
5.14206
4.463
4.38599
4.04586
11.0958
15.1454
9.82629
12.2615
4.83094
4.41184
11.4569
7.40765
4.73358
6.8897
13.0988
8.12525
6.32483
11.2289
6.29256
11.123
2.32959
2.31146
2.73268
2.3768
2.69103
9.10825
11.6383
5.11873
5.50746
3.75867
3.50183
2.71811
3.54441
3.30473
6.45476
3.17348
2.63266
2.37047
3.23661
5.88434
5.69744
6.51666
6.46218
6.14201
6.60805
6.60296
6.38819
6.31607
8.40498
9.09621
9.94161
9.68197
7.15128
6.69949
7.22184
24.4812
22.8346
24.049
26.0453
30.4429
27.4806
30.3359
43.4261
40.9919
36.5482
32.3049
31.6981
44.7036
33.7525
32.5194
31.2403
38.9018
38.7571
39.4792
29.3601
7.94583
9.5752
7.81806
10.1003
6.26044
6.67357
4.25153
5.27175
11.9346
8.1305
16.9914
9.28687
4.66609
4.44417
14.0578
11.0411
16.9462
8.78455
19.0094
6.52613
30.6403
37.5219
41.4724
55.8865
42.0922
29.8296
24.6174
39.5085
47.1108
41.9993
45.3355
35.6071
62.5737
41.0425
79.0106
80.9925
55.2754
3.25317
12.2307
7.05129
32.5287
6.14631
5.9329
8.64125
7.84821
40.1302
7.68232
1.99721
21.5871
12.1233
11.5939
15.206
14.5438
13.1314
11.6021
10.9362
10.6828
14.016
15.1377
12.5947
12.9306
12.8404
14.1866
11.5749
12.8931
12.8152
12.0098
15.4357
11.2162
11.3265
5.80119
5.6907
5.48651
5.62415
6.31671
5.8658
6.30371
5.73512
5.5114
5.63142
5.58653
5.46888
5.40996
5.36218
5.82437
5.67878
5.59485
5.4953
4.82377
5.25957
4.81109
4.98512
5.0916
6.30821
4.77541
4.95499
6.07995
6.9535
5.1344
4.84988
5.0768
5.9118
5.16068
6.01798
6.43449
6.43573
6.05812
5.68303
6.54697
5.57219
6.33743
6.20328
6.35386
5.60863
6.23573
6.21955
6.25681
3.14442
3.21737
3.18127
3.32472
3.07199
3.03101
3.15436
3.13205
3.49843
3.65542
3.12807
3.14077
3.19155
3.30592
3.50285
3.42348
7.12216
7.1753
7.31136
7.11932
7.08444
8.11317
6.97008
7.06654
8.47709
7.27702
6.59354
6.42145
7.12186
7.8549
7.68807
7.22282
7.25886
21.8381
21.9962
16.787
18.1163
19.6365
21.9356
25.197
25.5063
18.6399
19.7752
25.5626
30.108
24.8684
26.6352
23.7595
25.1514
24.129
7.32837
5.81176
5.37634
7.70506
5.19969
13.4313
20.0585
5.34114
11.2681
11.2201
8.43186
10.3229
11.4645
5.73136
3.17558
10.0969
22.5995
4.16843
8.27402
6.79198
5.63561
4.63738
4.46857
6.8725
6.56143
5.27477
5.16526
4.92695
4.81697
4.77847
5.0028
4.65111
4.49285
4.85931
4.593
4.63865
4.86164
5.26161
4.68579
4.68392
3.84699
3.55352
3.27912
3.49916
4.08553
3.42468
3.35335
3.35199
4.28004
3.32264
3.46092
3.58263
3.88425
3.4451
3.21527
3.13887
5.46376
4.45631
4.86225
5.77027
4.86924
4.40259
9.04081
5.93254
6.28402
6.22551
14.2788
8.31702
5.04859
9.21457
4.45177
7.3428
9.12262
14.0934
16.6436
10.3306
14.8031
17.2003
10.7567
15.4357
11.305
7.90421
5.86485
4.56261
14.6809
9.78839
11.1469
3.04373
4.36598
11.482
3.9082
10.4293
9.51285
3.81213
3.5116
3.29308
8.10705
5.52665
5.5144
5.44411
6.52894
5.56932
5.59311
6.36825
5.66223
5.61434
6.41113
5.63588
5.53234
7.68652
6.86307
10.237
6.11895
6.94965
8.55688
10.4473
9.10516
7.99401
7.10998
5.54111
4.42202
4.51027
4.69387
8.38464
6.94294
7.26263
6.90145
6.49484
4.19058
6.1749
7.59842
7.67066
18.1912
17.61
6.36801
6.44036
6.89829
20.6429
8.45688
12.1836
7.4893
3.31567
9.04184
14.7968
6.13458
4.82809
4.05554
9.67312
8.43416
14.3078
16.3721
6.69496
9.14498
10.0081
4.15387
6.11402
5.69352
4.40086
4.38254
9.52977
8.63151
10.0293
15.7123
6.92332
10.2619
4.41985
4.11107
7.73098
4.27437
5.69594
6.05632
5.17797
5.81571
5.40171
5.22017
5.0159
5.66112
4.92468
4.75882
4.47854
4.36426
4.60501
4.28935
4.28202
4.54256
4.52136
1.98021
2.01037
2.0385
2.0171
2.00267
2.14018
1.96054
1.95083
2.00221
1.97532
1.94786
2.13063
1.99874
2.07154
1.97428
2.07326
1.98684
2.00692
2.02855
2.35113
2.17922
2.00682
2.37145
2.14199
2.07942
2.07121
1.89003
1.73099
1.6701
1.90228
1.96518
1.65196
1.65368
1.78472
1.78867
1.65219
1.72845
1.69979
1.69694
1.70424
8.09386
7.89694
8.48556
9.45573
7.98921
9.18645
8.43561
7.49583
8.36916
8.75527
7.5054
7.43199
7.56653
7.15151
9.54014
8.3314
9.35375
3.94658
3.46501
3.95794
7.66058
6.33222
3.46772
3.75788
3.74488
3.30417
4.62645
4.97248
6.89192
3.32116
3.24735
5.24507
6.78301
2.74311
2.87735
2.86415
2.83876
3.06594
3.81101
3.00341
9.63667
7.49141
3.45418
3.1082
4.70677
5.59991
8.19985
6.02284
6.23239
7.10988
7.94065
15.2159
21.0087
10.7065
20.0836
4.36915
7.38048
4.16002
1.84247
1.79496
1.84884
1.79769
1.72408
1.85846
1.80244
1.7765
1.91625
1.98072
1.88627
1.84268
1.78794
1.84957
3.12044
3.14541
2.85635
2.82363
4.0758
2.63044
2.80054
3.73138
4.41143
3.78432
4.70188
3.37457
3.13185
3.9231
2.57157
6.66011
2.40279
19.3013
19.3013
3.94347
19.3013
4.86235
4.85337
9.98332
5.24844
6.10538
4.96588
4.29926
3.81443
7.42332
4.21515
4.31827
5.64985
20.3899
24.241
25.6166
20.3903
21.2805
21.4982
23.7105
19.6305
23.4753
19.5381
10.0168
10.6934
7.67895
11.8558
4.30485
3.91485
3.51706
4.81024
7.18312
8.77415
10.5024
10.0367
8.7964
3.69555
3.87223
2.77693
8.00469
9.52551
3.8626
3.76454
3.65674
4.05767
3.77113
7.25057
3.9026
5.10631
3.86367
12.2309
6.19721
3.28603
3.68003
12.2309
5.74651
14.3926
4.93228
2.92764
3.08456
5.28292
6.05605
2.92992
7.99545
7.8713
7.45916
8.00135
7.59509
7.28369
7.66949
7.53821
7.09021
7.4513
7.15713
7.49988
7.77933
7.52911
7.15632
6.7819
7.02001
6.74202
7.22821
7.93762
7.90913
7.52482
7.77471
7.32119
7.22683
6.54
6.05886
6.36602
6.12615
7.20711
7.27508
8.25474
7.87317
6.0648
6.03322
6.15855
7.14269
29.2615
29.9928
24.9817
23.6184
38.8025
31.979
36.7126
30.9434
29.0109
45.8804
35.6812
37.5562
37.195
44.0149
58.1726
55.9101
4.68196
4.88351
4.87854
4.66079
4.62262
4.66604
4.68981
4.60991
4.81105
4.80522
4.55151
4.71887
4.56279
5.44983
5.18896
5.49025
5.47031
5.39031
5.09959
5.76492
5.53699
5.71678
5.47459
5.6337
5.75766
5.34543
5.49856
5.36594
4.87803
4.9509
4.75329
4.82696
5.15648
5.06575
4.73587
4.7621
5.10689
4.91937
5.00947
5.04304
4.93396
4.95611
5.09173
5.26799
9.95883
9.91198
9.7286
9.1034
9.2555
9.61235
8.94478
8.78678
9.22883
9.37209
11.215
11.0208
9.50665
9.18752
9.32326
9.40301
10.8546
9.75647
9.91463
9.73032
8.27564
8.10536
7.70106
7.30813
7.93884
7.7525
8.59589
7.90885
8.83709
6.62696
7.07474
8.66646
7.39384
8.15515
8.67759
9.65492
8.95197
8.87151
9.8482
10.0313
10.4377
9.36073
9.78061
10.7303
9.59516
11.4201
12.1906
11.5546
9.77906
8.97629
10.3278
12.5657
11.0548
12.8429
11.9799
12.1898
10.1462
13.5957
12.1918
11.1592
10.7151
11.5606
12.4192
9.96838
9.72827
9.56543
10.342
11.1169
3.36666
3.20117
3.16777
3.13913
3.55024
3.50602
3.45084
3.59259
3.63317
9.17654
9.57274
8.4859
8.521
9.15241
8.35487
8.265
8.70133
7.93585
7.77638
7.86148
7.82668
8.09667
8.87684
8.34315
7.89856
8.18961
8.37727
8.70879
9.23796
7.88103
8.6067
3.75021
3.80399
3.7447
3.75584
3.77331
3.91323
3.80943
3.64751
3.7941
3.70157
3.79213
3.66559
3.80567
3.62467
3.63464
3.6687
3.70675
3.68274
3.70068
3.68324
4.98005
4.76881
4.87074
4.67746
5.01551
4.76703
4.84479
4.94305
4.87513
4.7823
4.81066
4.62396
4.69578
4.7395
4.69913
4.93184
4.83745
4.95235
4.63389
4.82191
4.6878
4.92175
4.65378
4.51084
4.59737
4.61951
2.80328
3.0015
3.01682
2.85281
2.64378
2.70272
2.47432
2.58059
2.96426
2.54376
3.01906
2.74803
2.6818
2.41637
2.45921
2.67505
2.48368
2.48614
2.47541
2.49265
2.5097
2.55592
2.5476
2.68117
2.48969
2.55184
3.2263
3.27742
3.36898
3.37004
3.14915
3.17983
3.20209
3.66966
4.14174
3.67372
3.61594
3.22231
3.27909
3.29856
3.36134
3.33239
3.48119
3.27839
4.22534
4.30506
4.47851
4.25467
4.16298
4.39324
4.41864
4.13152
4.14761
4.25203
4.33694
4.15062
4.08737
6.45851
6.9795
6.53092
6.21799
6.53976
6.93355
7.44596
6.79932
6.7525
6.42609
6.58511
6.99656
6.63746
3.64994
3.09598
3.48517
3.61299
3.41071
3.22733
3.4467
3.48296
3.45043
3.69821
3.68874
3.5755
3.66508
2.57899
2.25642
2.25355
2.28717
2.29708
2.5616
2.41199
2.55258
2.28268
2.29221
2.3851
2.36691
2.27803
2.28166
2.34163
2.30387
2.24316
2.2861
2.38385
2.41074
2.28569
2.30292
2.49753
2.48228
2.75271
2.35918
2.43988
2.47583
2.34429
2.44621
2.3702
2.56131
2.53936
2.49186
2.47648
2.50896
2.56708
2.55241
2.47032
2.44681
2.52752
2.59817
2.50617
2.53507
2.61324
5.62783
5.98708
5.9828
5.24856
5.5032
5.33137
5.59213
5.19756
5.18362
5.32737
5.18422
4.74741
4.657
4.9199
5.10818
5.30308
4.85255
5.10087
4.93881
5.1561
5.17551
4.8706
4.88349
5.01024
5.58148
5.67728
5.70685
8.23347
5.69279
5.34901
5.45515
5.44622
5.5434
5.70028
4.60029
5.02436
5.21956
4.88526
5.95066
4.50269
4.87392
4.95277
5.41951
4.81848
5.10544
4.83378
4.87429
4.93004
4.69488
4.63629
4.67412
4.85969
5.11195
5.02124
5.22018
4.82861
5.06591
4.50679
4.57065
4.32332
4.3593
4.51643
4.6504
4.63354
4.67518
4.97114
4.97468
4.66026
4.58071
4.72078
4.82824
4.76521
4.67344
4.83029
4.82215
4.76698
17.117
15.8008
19.7465
14.2162
14.5046
18.371
19.8412
16.3817
18.5634
17.31
14.4887
18.6675
15.6234
4.13359
4.20962
3.93275
4.01653
4.07372
3.86981
3.82536
4.00209
4.02397
3.92321
3.86861
4.21856
4.10578
3.84453
4.06559
4.02724
4.51077
4.06778
4.65056
4.45496
4.02651
2.40549
2.4171
2.4036
2.45226
2.44196
2.41887
2.4926
2.50237
2.43019
2.36263
2.51749
2.54318
2.36498
2.41638
2.37773
2.42679
2.46711
2.46481
4.39939
5.36724
4.32961
4.68972
4.73132
5.08018
3.75114
3.64024
5.0859
3.7786
4.25006
5.50798
4.37348
4.21424
4.26714
4.05814
3.71033
4.33305
4.76441
3.72262
4.81027
4.21121
3.97112
3.68709
4.26587
4.85593
4.86199
1.77885
1.84848
1.86192
1.74462
1.88784
8.06013
8.34382
8.53895
6.37374
10.1971
6.19347
11.4586
13.5317
14.6533
12.0615
16.0239
12.8743
11.3273
13.5472
7.77744
6.15197
6.04873
6.15065
6.0386
4.99493
3.86979
4.41258
5.68766
5.08449
3.90506
3.5698
5.55595
6.06793
3.65937
3.67372
4.30655
4.4854
4.19677
4.92868
6.33613
7.3082
6.5735
9.72633
12.8217
2.20045
6.83743
3.37705
4.39146
18.9622
31.2675
21.3885
21.4366
9.80629
4.60411
7.97667
20.0179
18.3757
6.90736
4.95129
5.20651
4.27285
4.08933
4.22374
3.89703
4.01869
4.55356
5.65954
5.288
3.60163
4.37555
5.1657
4.48354
5.18077
4.01015
4.87625
4.74151
3.70015
3.76712
4.64692
3.46464
4.57972
5.03435
5.37887
5.14436
3.53673
3.41481
3.56168
3.61464
4.0844
4.0393
9.79308
9.95259
9.95808
9.29514
9.31475
9.6305
11.2348
9.12924
9.85931
10.6819
6.85349
6.81909
6.97008
7.96807
10.2263
8.5625
10.2262
10.0768
7.0496
8.19707
5.21871
7.13825
3.63469
3.62395
3.60293
3.56574
3.56787
3.50377
3.5866
3.62456
3.59435
3.59485
3.54021
3.49374
3.48994
3.60173
3.5795
3.52638
3.55581
3.52786
3.44511
3.49374
5.72363
5.92747
7.03703
4.64845
5.61518
4.74878
7.14296
5.09154
5.48289
4.45995
4.52519
5.43979
4.67554
4.52207
4.87055
9.59934
8.69806
8.96058
8.69528
10.0029
7.78118
9.26595
9.65684
3.03164
3.1482
3.11853
3.14411
3.10283
3.09808
3.13698
3.22661
3.06156
3.06045
3.16566
3.07916
3.57395
3.67195
9.8495
5.40597
3.40607
4.04319
9.34152
6.95476
9.5832
10.0686
15.2308
7.52009
11.5455
17.3858
7.17347
4.46792
4.45305
4.88673
2.99467
3.04183
3.00787
3.02177
3.08528
3.0393
3.00052
3.1672
3.08604
3.07766
3.12881
3.18824
3.05484
3.04142
3.07055
3.17661
3.22609
3.10585
1.88467
1.88688
2.04159
2.08781
1.94991
2.03793
1.86834
1.88682
1.93617
2.15968
2.01306
1.92457
2.35981
1.95819
2.00651
2.02421
2.03284
1.91709
1.92357
2.09333
2.02445
1.90446
15.8258
14.447
16.3197
18.9284
15.1686
18.0741
15.9101
14.3574
17.0396
18.8471
18.4883
17.0445
16.7717
15.6472
17.0034
15.2589
6.96536
6.83902
6.64956
7.48696
6.2061
5.93219
6.67717
5.90723
5.24086
5.39758
5.63192
5.53461
5.68888
5.1806
5.37849
5.59613
5.30099
5.39113
2.27099
2.71583
2.67394
2.2922
2.15021
2.04861
2.42805
2.50543
2.4027
2.28265
2.18534
2.20739
2.1172
2.0698
2.22417
2.12158
3.89946
3.87026
3.94789
3.88927
3.73594
3.89323
3.87487
3.88834
3.91162
3.89888
3.86275
3.91539
3.90267
3.87609
3.82485
3.81919
3.78703
3.78403
3.73172
3.7421
8.8148
8.61364
7.6233
6.60049
5.01475
7.13251
5.74196
6.23815
6.70251
7.9517
5.0814
4.85106
5.86393
6.06954
5.33233
5.61373
3.80902
3.87401
3.38371
3.46572
3.1088
3.48417
2.81896
3.3326
2.85348
2.64191
2.78951
2.64142
3.57015
2.99921
2.49473
3.24842
3.99603
2.13516
2.06421
3.42674
3.21824
2.95807
2.02113
1.94166
2.63795
3.09005
2.26478
2.15746
2.60761
2.82614
2.83617
2.84862
3.07331
3.11962
3.06655
3.13109
2.80782
2.88112
2.69178
2.76553
2.79441
2.74965
2.98199
2.97644
2.72753
2.87192
2.94574
3.6919
3.93213
3.35906
3.11737
4.39191
4.00102
3.46354
3.44924
3.86377
3.10944
3.15444
3.05925
3.07795
3.22609
3.24718
3.093
3.2074
3.14618
3.60634
3.30854
3.21329
3.23833
3.30416
3.3128
3.27133
3.20582
3.32711
3.30728
3.24703
3.32268
3.23831
3.2531
5.92952
5.62998
5.69408
5.83098
5.56887
5.75079
5.85224
5.77161
5.68599
5.70546
5.68434
5.52651
5.50906
5.51455
13.302
13.6476
17.8938
17.4836
18.3756
18.4896
13.2138
11.8368
15.4282
16.3643
13.5941
16.5858
14.4313
15.043
1.93221
1.97654
2.02413
2.00385
2.29398
2.44332
2.30626
2.44949
2.00427
2.21996
2.18363
2.17935
2.29322
2.16066
2.03939
4.84077
5.6307
3.89727
2.39281
4.20529
5.44694
5.94327
3.60542
3.98971
3.63109
3.67748
4.01379
3.699
3.75839
3.62012
3.47995
3.74309
5.11562
5.60449
4.65641
4.47566
4.03906
3.7699
4.36436
4.83998
3.78363
3.78875
4.57731
3.76778
3.66606
3.69157
3.56359
3.57875
3.56036
3.67656
3.61007
3.57165
3.62879
3.44583
3.35915
3.38024
3.70077
3.81674
3.92514
4.6103
3.32743
3.30785
3.30431
3.8492
3.17792
3.24889
4.29941
4.06868
3.71262
2.88897
3.42682
2.59827
2.43213
3.59648
3.41515
3.40844
3.16721
3.65294
2.3746
3.04532
2.4961
3.44913
3.72112
3.18631
3.50402
3.85044
4.06027
3.47812
4.03878
3.81604
4.17624
3.96803
4.28421
4.24551
4.13814
3.45439
4.04985
3.22695
3.27285
3.95099
3.73288
3.59589
3.42461
4.07927
4.11511
4.17808
4.11195
3.97802
4.09369
3.99682
4.03054
4.03798
4.02181
3.95799
3.97774
3.97551
3.93127
4.03112
4.03843
3.96923
3.93685
3.94626
3.91964
6.88933
6.59147
5.31447
5.70385
7.31759
6.24775
5.53271
6.55771
4.93627
5.05525
5.02213
6.70419
7.84219
7.43079
7.49913
7.55249
7.66681
7.45762
8.02013
7.8739
7.33269
7.36731
7.05129
7.10698
7.03848
7.95723
7.65444
2.28759
2.3604
2.30789
2.28477
3.06279
3.04077
2.9749
2.84306
2.8562
2.47517
2.6841
2.21339
2.23585
2.61569
2.59708
2.45386
2.89106
2.88354
3.32294
3.10128
2.94589
3.8506
3.84669
4.26273
4.10129
3.59096
3.94861
3.7172
4.02537
6.90204
6.13064
6.26962
5.89122
6.4557
7.90254
5.98865
6.07368
5.90343
6.11695
6.59689
8.07984
6.13635
14.7063
15.7359
15.1968
12.8626
13.8791
12.9562
11.9851
9.2822
9.75498
15.7931
14.9795
16.0117
16.1607
9.68042
9.70235
13.4711
11.6008
10.1
10.8191
13.5461
4.75851
4.73706
4.6315
4.71496
4.53647
4.46832
4.94641
4.58989
4.65532
4.58187
4.93741
4.65231
4.66811
4.91357
2.76166
2.11722
2.16272
2.15945
3.78785
5.62571
3.02302
2.79742
3.53112
4.02209
2.19264
2.42497
3.28788
2.8458
2.07576
3.22018
2.6212
2.24233
6.50059
7.0878
5.32026
5.35827
6.49361
6.93874
6.36817
5.34774
5.36492
5.69417
5.56432
5.35512
6.52467
6.97485
7.36241
6.22997
6.6866
5.86595
5.8393
5.4389
29.9342
6.94311
14.0262
7.08577
9.42379
2.77396
2.72229
2.96661
3.07224
2.47999
2.61238
2.52334
2.4535
3.30633
3.02963
2.94055
2.86251
2.46166
2.69285
12.0905
12.2475
12.7843
18.2193
15.6363
18.1256
6.07123
7.50705
11.5906
15.3515
6.28847
4.76479
4.87229
4.95498
4.88645
4.62518
4.64057
4.75924
4.73768
4.86617
5.01232
4.87689
6.9369
7.04925
8.27689
7.8775
6.60015
6.16619
6.19971
7.69167
6.80364
6.43281
6.48816
5.93248
7.69407
8.28791
7.53787
5.60234
5.72045
5.50538
5.44233
5.62722
5.50786
5.22513
5.32843
5.28111
5.28461
5.53183
5.79139
5.39723
5.5021
5.43806
5.38891
5.6948
5.83129
5.40704
5.62819
5.51341
7.84842
7.47142
7.49875
7.08205
6.84319
6.39732
7.68745
8.16161
7.20516
6.51348
5.94304
6.84874
5.94393
7.4262
5.90691
7.0717
6.45095
8.27047
8.21385
7.92903
7.80795
8.50799
8.90612
8.37191
9.43659
9.81345
8.78972
8.24017
9.13394
8.55733
7.49087
8.16298
9.0882
7.98899
8.27669
7.70424
8.3484
5.83124
5.97252
5.77404
5.85402
5.59641
5.79229
5.95294
5.69458
5.74329
5.9051
5.88758
5.91597
6.12835
6.13693
2.65832
3.0195
2.84792
2.99751
2.92077
2.79151
3.44541
2.7821
2.86994
2.99426
3.79765
3.00556
2.83725
3.94342
3.26106
3.82087
4.32645
2.87634
3.18016
3.55564
5.56476
3.77131
4.70944
3.29083
4.83756
2.09255
2.13498
2.30469
2.05402
2.18852
2.20528
2.11193
2.16289
2.2404
2.13191
2.03968
1.99732
2.06343
1.99976
2.07486
4.06162
4.13307
3.58829
3.32855
10.0524
11.2061
3.2981
11.7783
3.72777
3.96539
3.72899
6.56599
5.76288
10.6459
12.2915
8.30604
9.66578
8.57433
5.71751
5.86506
5.83106
5.70127
5.95729
6.47136
6.16226
5.98792
5.85314
5.67304
5.67474
6.3215
5.79249
6.39866
5.93032
6.48312
5.70853
5.67433
6.46888
5.89515
6.28894
4.5885
4.5007
4.50416
4.48381
4.52197
4.51663
4.58839
4.60878
4.54135
4.55334
4.60945
4.69829
4.80905
4.72501
4.68405
3.62546
3.69282
3.65031
3.63412
3.68201
3.75474
3.71186
3.60772
3.95812
3.77369
6.74314
6.89793
7.16422
6.96497
6.54707
7.07667
7.53052
7.32324
7.31814
6.85519
6.74889
6.99691
6.15099
6.37597
6.85074
5.73531
5.2159
6.09861
5.94417
5.57473
5.20063
5.04779
6.60013
6.23576
7.4547
7.06237
6.50137
4.88508
5.40441
6.42684
6.54001
5.70401
2.99876
3.08844
3.09875
3.09608
2.59859
2.89328
2.57314
2.55436
2.55311
3.2179
3.32979
3.09526
2.59615
2.78745
3.33666
44.3273
15.0155
20.9567
10.039
17.8919
35.7636
31.7614
26.313
12.9739
11.5595
10.039
23.669
15.8515
14.8704
27.3267
4.93621
4.79475
4.92542
4.87497
4.71843
4.83986
5.36168
4.94855
5.70998
5.0917
5.47207
5.01547
4.86991
5.1149
4.9942
4.82026
4.80778
4.88356
5.03968
4.68202
4.63898
4.97343
4.8719
4.96683
4.83252
4.81353
4.84228
4.68814
4.74527
17.1545
12.6748
19.6366
33.1291
23.9314
19.0017
16.8202
33.1291
19.1622
3.08588
2.86186
3.16114
3.12375
2.82867
2.851
3.18285
4.04049
4.09569
4.8995
4.79885
3.61057
3.74174
4.57527
3.26262
4.16217
4.20979
3.30618
59.7772
66.9509
81.1583
38.215
64.7925
75.0827
105.35
101.138
45.083
89.122
60.3072
61.1962
85.1141
88.1012
122.341
124.519
212.202
76.5919
92.2332
122.495
204.111
62.2226
65.9201
62.0294
81.1258
63.6792
121.402
46.9799
46.1195
82.0666
62.5247
8.85255
5.78271
7.30129
20.2664
8.57192
26.0624
5.01774
8.54994
14.7573
8.19052
9.50767
9.27961
10.537
9.53768
10.0907
8.89163
8.39183
9.69392
10.6175
9.74726
10.587
10.4502
9.85253
10.2958
9.90917
14.9589
15.0185
15.2524
13.9353
16.969
17.1585
14.403
13.2129
17.1555
14.7827
15.3957
11.6031
12.6521
10.7848
13.7035
9.113
14.9631
13.1001
8.56352
24.9358
23.476
32.8715
28.7039
28.0428
26.8668
28.3094
34.7052
37.1004
35.9945
36.8185
41.8266
45.2204
8.36131
7.47304
12.8599
15.496
7.94317
8.39362
14.7165
11.4516
7.49416
7.28094
11.884
8.51348
8.07929
8.26215
9.66828
14.1149
16.1708
19.6236
15.4236
19.0708
16.3781
10.4463
22.8554
13.1774
22.5286
23.216
22.4176
28.248
24.9044
9.44655
8.58871
20.6698
26.5369
28.2313
20.7142
3.34753
3.31137
3.22585
3.27411
3.30102
3.33672
3.36708
3.31713
3.18539
3.18633
3.3192
3.36646
3.27995
3.36767
3.34338
3.69796
3.55923
3.58093
3.24916
3.45033
3.60545
3.30529
7.3513
6.86955
7.1903
6.73605
7.12894
7.33509
7.81304
7.68501
7.34503
7.03242
7.12078
7.67077
7.11131
7.81263
7.50184
7.40833
7.16713
3.57245
3.76285
4.06198
4.05671
3.89535
3.70114
3.54384
3.58515
4.14594
4.36488
4.86612
4.78004
5.37613
3.25237
3.7954
4.02079
3.94798
4.27638
3.90088
14.9303
12.8673
8.20554
8.5034
7.68506
7.44929
8.42079
10.0956