/*--------------------------------*- C++ -*----------------------------------*\
  =========                 |
  \\      /  F ield         | OpenFOAM: The Open Source CFD Toolbox
   \\    /   O peration     | Website:  https://openfoam.org
    \\  /    A nd           | Version:  10
     \\/     M anipulation  |
\*---------------------------------------------------------------------------*/
FoamFile
{
    format      ascii;
    class       volScalarField;
    location    "17";
    object      p;
}
// * * * * * * * * * * * * * * * * * * * * * * * * * * * * * * * * * * * * * //

dimensions      [0 2 -2 0 0 0 0];

internalField   nonuniform List<scalar> 
75457
(
-36.5727
-33.051
-29.0934
-26.3812
-21.5656
-23.2149
-32.2937
-32.1546
-20.7942
-15.221
-19.2061
-20.9289
-20.5212
-18.1326
-4.2135
-4.65641
-4.36513
-4.56182
-4.99807
-4.51154
-4.04585
-4.68226
-4.70857
-4.96767
-4.75423
-5.10902
-4.8652
-1.19182
-1.22871
-0.668103
-0.311194
-0.538835
-0.635172
-0.799495
-0.177875
-1.23698
-1.13739
-1.30498
-1.44087
-0.480165
-0.759549
-0.457825
-0.950347
-10.7269
-10.6761
-9.63645
-9.80918
-10.304
-5.82548
-6.54364
-6.88462
-6.20048
-6.38888
-6.59523
-6.92771
-6.91545
-6.7304
-6.96504
-6.16776
-6.52324
-6.37602
-6.09387
31.1632
31.4312
31.1699
31.5028
31.7385
31.7631
31.415
31.4543
31.7247
31.5127
31.2428
31.5026
31.4907
31.1721
31.3799
-10.162
-11.3577
-9.53892
-11.4472
-13.071
-7.06922
-7.35835
-9.37293
-10.0354
-9.94988
-9.84615
-7.32837
-8.50105
-7.21569
-7.18239
-8.1784
-7.15428
-7.0708
-7.22597
-7.25723
-7.60178
-7.19418
-7.03159
-8.20771
-7.4375
31.8167
31.706
31.9671
31.9834
31.8503
31.7009
31.6202
32.0706
32.0725
31.6875
31.6976
22.4321
23.093
25.5563
25.13
22.4951
24.0731
24.1063
23.5764
23.9327
25.6213
25.4053
25.9484
26.4878
25.2416
24.6806
23.484
25.9026
24.8999
13.958
13.9213
13.3405
14.2276
13.8217
15.3507
15.0353
14.9241
14.914
8.02714
7.56849
8.13874
7.67813
7.10975
7.62066
7.64789
6.6964
-7.13226
-7.17448
-6.56061
-6.76201
-7.15452
-6.80237
-6.5089
-6.01226
-4.47281
-4.51453
-6.06506
-5.78832
-5.31695
-6.02656
-4.89832
16.5483
18.1497
18.3912
17.7293
18.1495
14.432
15.817
17.3782
16.3873
17.348
14.6705
13.356
13.9477
-9.52429
-9.99848
-9.86739
-10.0779
-9.8452
-9.97801
-9.30259
-10.0001
-9.84292
-10.0872
-10.0739
-9.90947
-9.835
-9.95264
-8.80604
-7.42933
-9.92357
-7.32402
-7.64507
-9.23545
12.0137
12.7839
11.4322
12.2207
10.4203
11.2199
13.6047
13.3045
12.4094
9.64283
9.61061
-7.78934
-7.63568
-8.04763
-8.00656
-7.95688
-7.88386
-7.72092
-7.59769
-7.20389
-8.03125
-7.78334
-7.56232
-7.9181
-7.52763
6.44844
5.52575
5.91113
4.23825
4.78223
5.50503
5.38177
6.63254
6.20426
5.30618
4.68625
4.05997
6.27257
4.70522
-7.21333
-7.28595
-7.00162
-6.9727
-7.27293
-7.20801
-7.29631
-7.25401
-7.43318
-6.96685
-7.20886
-6.70384
-7.33097
-7.40024
-7.15003
-7.11753
-7.27035
-9.69558
-9.494
-9.46305
-9.42499
-10.6765
-9.17229
-9.06975
-8.4826
-9.34748
-9.82298
-8.81745
-9.49905
-10.2191
-10.042
-10.0656
-10.256
-9.57537
-9.98768
-10.3146
-10.0336
-9.56972
-10.2202
-9.9635
-9.73222
-9.83812
-4.32288
-4.08455
-4.3733
-3.83829
-3.85832
-3.72378
-3.52743
-3.4904
-3.4606
-3.93513
-4.23487
-4.10962
-3.38571
-3.80211
-3.74033
-0.510643
-0.40649
-0.246941
-0.475008
-0.233207
-0.41621
-0.666235
-0.901865
-0.149383
-0.0534084
0.0432973
0.00254399
-0.0879701
0.172112
0.31483
0.257005
0.133903
0.103912
0.163343
0.117737
-0.0299802
-0.0464419
-5.46484
-5.89385
-5.09694
-5.21742
-5.43669
-5.4178
-5.8948
-5.86938
-6.15288
-6.4282
-5.96785
-7.52183
-7.6576
-7.79438
-7.79507
-7.74957
-7.48089
-7.51433
-7.88351
-8.15383
-7.84639
-8.10424
-7.19198
-7.47773
-7.68631
-7.78222
-7.62134
-7.73702
-14.3432
-13.3893
-13.0902
-14.6585
-16.8573
-16.1346
-16.131
-15.965
-15.5209
-15.162
-16.3874
-4.49546
-4.71756
-5.43903
-5.23133
-4.90378
-5.32637
-4.97223
-5.74738
-5.40235
-5.23519
-4.73313
-0.238515
-0.112324
-0.376969
-0.447758
-0.125731
-0.119575
-0.433506
-0.16785
-0.542103
-0.57833
-0.641161
-0.241286
-0.47646
-0.960834
-0.952812
-6.42385
-5.50815
-7.13836
-6.49836
-6.33899
-7.66019
-7.99863
-7.66622
-7.94301
-8.01778
-7.68264
-8.40827
49.9634
54.7424
43.3934
46.0256
48.8199
50.8669
50.5291
53.36
45.9793
50.3799
48.6254
49.6302
45.7389
50.189
44.4717
45.9525
47.8598
42.9178
34.7712
34.3132
35.0734
35.804
36.6982
37.6656
34.9867
35.6167
38.0862
41.5308
38.277
38.4874
40.1925
26.1329
23.3653
20.8197
22.4486
27.0045
23.718
22.2718
23.6829
23.3602
21.4643
28.6909
28.6768
21.8408
23.3721
20.8484
26.9986
29.1171
29.1905
25.2174
25.1813
25.853
27.1362
-8.97144
-9.325
-9.55079
-9.53288
-9.62885
-9.0454
-9.11296
-9.23874
-9.39907
-9.05896
-9.48094
-9.06246
-9.20473
-9.15719
-9.29327
-9.25584
-26.1872
-28.9378
-15.5881
-24.1258
-13.8463
-20.8324
-18.822
-15.7796
-13.9144
-18.9108
-33.1643
-28.4269
-18.668
-25.9448
-14.0991
-16.2539
2.20646
2.04808
2.20991
3.0568
3.43258
4.04375
1.85509
1.52419
3.18976
3.16282
4.05006
3.69793
3.42283
3.34694
3.18347
2.52511
1.78731
2.60233
33.9053
37.9539
36.5198
33.1133
34.4388
37.196
40.7195
39.7976
34.7041
40.6772
42.3739
40.635
36.7615
33.5299
34.3229
35.3475
27.0139
26.3687
26.8704
26.6435
25.8037
27.5783
28.1539
27.5387
26.9078
27.8513
27.2929
26.4761
27.327
25.7548
26.4358
27.9605
28.4379
12.5441
12.3942
12.1078
12.4741
12.4659
12.5188
12.6142
12.6859
12.7181
12.5705
12.2068
12.2791
12.7863
12.4442
12.5485
11.8449
11.8473
-5.53586
-6.40514
-8.01527
-7.17593
-6.05683
-6.30666
-5.70018
-5.80081
-6.51819
-6.09276
-7.75763
-7.99264
-6.83347
-5.17088
-7.45031
-6.50815
-6.60316
-7.34102
-4.40487
-4.45824
-4.28687
-4.23733
-3.73146
-3.94587
-4.17806
-4.15661
-3.64452
-3.82469
-3.95792
-3.6348
-3.48919
-3.92904
-6.69402
-6.24344
-7.19129
-7.96133
-8.00132
-7.41879
-7.1293
-6.95789
-6.82443
-7.87692
-7.86972
-7.72354
-7.16044
-6.63638
-6.92259
-7.69163
-7.85599
-8.00911
21.5365
17.3101
18.107
24.8608
21.1979
15.3465
18.2436
18.4181
14.9216
23.2472
18.4001
15.5535
-8.68122
-8.47428
-8.16615
-8.14043
-8.47604
-8.18399
-6.95958
-7.30967
-8.23694
-8.30943
-8.20119
-7.36831
-7.3193
-7.95724
-8.08215
-7.88157
-5.68441
-6.24878
-5.21671
-5.66283
-6.84934
-6.74816
-6.75661
-5.60047
-5.43357
-5.37717
-5.30553
-6.31863
-6.84684
-5.56072
-5.15317
-6.16689
4.8322
4.06979
3.40933
6.63864
7.52161
5.09055
5.80069
2.57715
4.13955
4.84731
6.42473
5.33985
6.3947
7.21567
6.94751
3.86681
3.98127
5.26758
3.369
-2.97367
-2.03232
-2.8791
-4.41621
-3.49621
-2.49311
-4.15954
-3.72235
-2.93636
-3.2483
-2.93226
-4.18688
-3.03804
-2.66607
-1.67778
-1.33804
-1.46806
-2.14351
-1.69342
-1.93512
-1.69351
-1.63001
-2.17555
-1.47261
-1.94437
-1.78176
-2.43081
-1.37443
-1.40995
-1.48073
-1.25435
-1.84266
-3.6219
-4.25144
-3.29597
-1.90387
-2.37933
-6.07013
-3.55464
-3.20504
-3.2263
-4.30228
-5.74272
-8.63516
-8.93477
-9.05688
-8.70736
-9.7806
-10.1121
-9.88574
-10.7867
-8.05966
-7.71349
-10.2815
-11.1811
-11.007
-9.9523
-9.69275
-10.9793
-9.9875
-9.67761
-10.3679
-10.2489
-9.40998
-9.56348
-9.63874
-9.33406
-9.53053
-9.2762
-9.49662
-9.5275
-9.30468
-9.11893
-9.26801
-9.49902
-9.27147
-9.34956
-9.2497
-9.38166
-9.32003
-9.29658
-7.67449
-8.22488
-9.29026
-9.14247
-8.23038
-8.74154
-9.18797
-9.07685
-8.36496
-8.9916
-8.30205
-4.97041
-5.59831
-3.89361
-3.63383
-4.05072
-3.4247
-3.62688
-2.91722
-3.90058
-4.08839
-3.7263
-3.76434
-3.48901
-3.09036
-2.89335
-2.8288
-3.16099
-3.08189
-2.50127
-3.03071
-2.81234
-3.17158
-3.14403
-2.73755
-2.75248
-2.86829
-2.51345
-2.82024
-2.64434
-2.45686
-2.71113
-2.38304
-2.63858
-2.78127
-2.47478
-5.94143
-6.18431
-6.02644
-5.9956
-5.63584
-5.10681
-5.99803
-4.86352
-5.65291
-4.46857
-5.22613
-5.62105
-5.76191
-5.39032
-5.17223
-6.56355
-5.55993
-5.01235
-4.78192
-4.75515
-7.54263
-7.75624
-7.99077
-7.91263
-7.02995
-7.28002
-8.22558
-8.08279
-7.72449
-6.84024
-7.06714
-6.99798
-6.7941
-7.41781
-7.26364
-7.69632
-6.60123
-6.91944
-7.48304
-7.69008
-6.76411
-7.02913
-7.22098
-8.18153
-7.07122
-7.79159
-7.47522
-8.78326
-6.96891
-6.76408
-7.02131
-7.65705
-8.16494
-7.64711
-8.17241
-7.21923
-7.04834
-7.4529
-7.23835
-6.69777
-6.27186
-7.52487
-6.81598
-7.65203
-8.57072
-8.02069
-7.8445
-7.3054
-7.3908
-8.30628
-8.25967
-8.91692
-7.8762
22.4102
22.9587
23.9104
22.8778
23.6878
22.4409
23.4797
22.3075
22.8758
23.8801
-9.21891
-9.04707
-8.7932
-8.84661
-9.36928
-9.3285
-8.86181
-8.99596
-9.35848
-8.74814
-9.15621
-8.94454
-8.91341
-9.36624
-8.9464
-9.22095
-9.33322
-9.64208
-9.09014
-10.0041
-9.7435
-9.48962
-10.1781
-8.9783
-9.77097
-8.95294
-8.75234
-9.73687
-9.99932
-8.80233
-9.7994
-9.86499
-9.45051
-9.1118
-10.1252
-9.40647
-9.42522
11.9771
12.3822
13.0789
12.4961
12.1676
13.3002
9.86249
11.437
11.6654
11.3256
10.6195
12.7332
12.2017
12.7381
11.8488
11.4178
-12.8525
-14.0048
-13.0384
-12.4844
-12.6844
-10.7204
-11.3725
-12.2389
-12.7559
-13.3834
-9.65636
-10.9764
-12.1561
-11.2854
-12.3463
-10.3209
-10.0133
-10.0632
-11.1465
-11.2177
-11.9257
-10.2008
-9.68752
-9.46076
-10.6002
12.5348
11.5205
11.1631
11.2436
11.2752
9.80441
9.48227
8.90099
8.95776
9.51426
9.63674
8.72241
10.4555
9.57201
11.2696
11.3745
9.43993
10.5486
10.1527
-8.74501
-8.74223
-9.34699
-8.72523
-10.2025
-8.96962
-8.48062
-9.10731
-9.17128
-8.80242
-8.68908
-9.40988
-9.56367
-10.0653
-9.53896
-8.94122
-8.75041
-9.70439
-9.44534
-7.7676
-8.80254
-8.18196
-8.19123
-7.91941
-8.33648
-7.89793
-7.55967
-8.72906
-8.22669
-8.33883
-7.97498
-8.42571
-8.40359
-8.53318
-8.54669
21.652
22.2155
21.526
21.3277
22.5676
23.4585
23.2477
22.3181
22.3319
23.1677
23.3424
22.4149
23.2909
23.8313
24.5095
23.9473
-11.1107
-12.9211
-9.37108
-9.14964
-14.2124
-17.0654
-6.33387
-7.34644
-9.9911
-12.543
-9.46385
-10.0996
-11.5668
-16.8343
-15.1146
-7.86634
-12.8006
-9.80653
-13.2681
-15.641
58.3695
52.4123
48.0838
47.7484
56.8456
58.1411
51.6476
56.4555
50.6383
52.6362
50.2163
50.6648
47.4809
47.3459
53.0651
20.8514
19.5474
24.1709
25.8724
23.7124
20.6409
25.9931
22.5483
25.0024
28.2679
27.2126
28.4393
30.1624
27.9855
-14.2788
-15.0137
-14.5621
-15.31
-13.4202
-13.6809
-12.0492
-10.9159
-13.2471
-13.1947
-11.3715
-10.9054
-13.7082
-11.9883
-11.6481
-12.2893
-5.42865
-5.15402
-5.20481
-5.35873
-5.15643
-5.45115
-5.0971
-5.43183
-5.6008
-4.9713
-5.0263
-4.9851
-5.53928
-5.3542
-5.04419
-5.22726
-5.17356
-5.49995
-5.31172
-9.87087
-9.85139
-9.49526
-10.2677
-10.3991
-10.2312
-9.52226
-10.3309
-10.2099
-8.74716
-9.39176
-9.25932
-9.65383
-9.35821
-10.5497
-10.232
-9.02688
-9.44245
-9.19204
-9.28778
-8.93821
-9.01305
-9.48148
-8.95131
-9.05393
30.6379
29.8057
29.8659
30.3166
30.4909
30.0945
29.8761
29.9129
30.6229
30.417
30.4781
30.2252
30.3143
30.0905
30.4109
30.4732
30.4924
30.284
29.9325
30.5645
-6.53415
-7.35043
-6.47261
-6.99511
-6.47617
-6.1587
-6.31327
-7.09029
-6.09009
-6.40164
-6.61543
-6.80201
-4.52721
-4.61682
-4.23053
-4.09628
-3.91031
-4.58803
-4.58255
-4.71476
-4.49466
-4.07543
-4.06163
-4.36997
-4.39791
-4.05113
-4.18692
-4.12672
-4.30351
-4.16187
-3.40376
-3.20942
-3.46217
-3.20777
-3.3643
-3.73178
-3.79559
-3.93951
-4.02434
-3.26564
-3.73506
-3.37076
-4.05256
-3.86423
-3.58805
-3.41241
-4.06809
-3.71279
-3.34925
-2.67432
-2.74359
-2.96791
-2.1649
-2.63115
-2.33636
-2.30176
-3.19691
-2.66143
-3.30249
-3.35624
-2.41363
-2.39047
-2.54165
-3.30403
-3.33913
-7.02676
-7.07743
-7.59173
-7.61144
-7.63228
-7.0821
-7.20937
-8.00464
-7.61198
-9.26273
-9.02687
-9.09996
-9.25307
-9.39658
-9.40961
-9.23643
-9.50868
-9.18341
-9.06116
-9.38722
-9.18213
-4.38775
-4.23715
-4.42664
-4.42518
-4.32218
-4.53284
-4.47869
-4.68862
-4.64182
-4.43683
-4.91873
-4.8748
-4.82729
-4.9253
-4.7245
-4.89997
31.0175
31.2215
30.9556
30.6932
30.339
30.4044
29.9357
29.8783
30.1546
30.6936
-7.41256
-7.13149
-7.36563
-7.13414
-7.50678
-7.38104
-7.63071
-7.60776
-7.86086
-7.83121
-7.5953
-7.378
-7.60489
-8.0233
-7.95349
-7.742
-7.64767
-7.54891
-5.25366
-5.53627
-5.16691
-5.24141
-5.18346
-5.17254
-5.39255
-5.19646
-5.3416
-5.74724
-5.51199
-5.56124
-5.32987
-5.51104
-5.1099
-5.19823
-5.39166
-5.19348
9.10521
8.48519
7.90866
8.88464
7.08123
6.51637
9.51355
8.9855
7.67012
9.20128
8.22503
7.30602
8.078
8.11224
30.9252
30.8238
30.7016
30.529
30.978
30.5694
30.3888
30.4231
30.7308
30.5467
30.7211
30.8457
30.4168
30.3837
30.2727
30.3147
30.6943
30.4895
30.6366
30.4037
43.5721
42.2134
35.3708
38.4729
28.0148
32.3551
17.8375
33.5823
33.5517
30.9251
36.6634
26.7815
38.4378
43.5971
39.3854
46.9029
28.5154
39.7625
35.2617
-9.07957
-9.70939
-5.98782
-4.70808
-10.1884
-12.7043
-12.3971
-14.9082
-5.68328
-5.86539
-16.9412
-13.3795
-7.76762
-11.7908
-13.7328
-8.71327
-8.96678
-14.1977
-11.1331
-11.2893
-1.24349
-1.88218
-1.78403
-1.88857
-2.28318
-1.46694
-2.81873
-2.08776
-2.11031
-2.08241
-1.98176
-1.88305
-2.71496
-1.76793
-2.84634
-2.71661
-2.55773
-2.52326
-1.78429
-15.7615
-15.9973
-16.7471
-16.0886
-16.3221
-17.0825
-14.5226
-15.6489
-16.4768
-14.0232
-14.6143
-14.9685
-15.3659
-15.7944
-15.4531
-15.9533
32.6475
32.5982
32.4649
32.5413
32.8135
32.8307
32.7078
32.7362
32.5466
32.4114
32.9296
32.7057
32.8703
32.8655
32.4908
32.4126
32.5799
32.7501
32.8811
32.4775
0.129739
-0.0217964
0.546325
0.966512
-1.99315
-2.08193
-2.5161
-3.38206
-1.26589
0.14097
0.519534
-1.99861
-2.34585
-2.87976
-3.61468
-3.49745
-1.1561
-2.99157
-2.7404
-1.67272
32.8094
32.6989
32.7819
32.8248
32.8142
32.8314
32.7542
32.8858
32.9492
32.9561
33.0229
32.7327
32.901
32.8686
32.9794
32.9618
32.8479
-5.6692
-5.66603
-5.75547
-6.05165
-5.97148
-5.71362
-5.47305
-5.80395
-5.92313
-6.23587
-5.52852
-5.08774
30.8966
30.7127
31.2605
31.2629
31.0201
30.9649
30.6272
30.8404
31.0619
31.2257
31.2656
30.8961
30.7343
30.8515
30.6504
30.8511
30.6488
30.9127
30.9791
30.6393
30.8817
24.4812
24.0446
24.1403
24.556
24.5946
23.7606
24.1464
25.7856
25.9557
25.7433
25.0537
24.695
24.33
24.2658
24.2952
24.981
24.8722
24.8746
9.69041
9.94805
10.0308
9.61736
9.87763
10.5809
10.2221
10.2643
10.0101
11.1663
10.9971
11.243
11.0759
10.1463
9.876
50.9102
45.8408
40.0179
41.4403
47.7758
45.8579
57.3037
42.6896
49.5487
44.45
56.8769
56.6733
52.3957
45.6689
-0.868843
-0.568761
-1.03764
-1.55209
-1.50079
-1.7017
-0.93251
-1.08036
-1.20091
-0.954086
-1.69179
-1.39701
-1.08095
-0.538361
-0.720917
-1.17232
26.5195
24.4682
26.1022
24.3069
23.9741
24.3613
24.6855
24.7395
25.5906
25.9947
28.4441
27.9353
26.9591
29.2632
29.8492
27.272
28.3046
32.0839
32.0446
31.6431
31.742
31.8455
31.8973
32.1173
32.1541
31.6097
31.7265
32.0646
32.0926
32.0481
31.9271
31.883
32.0493
31.8553
-11.9695
-9.63879
-9.66105
-12.8887
-8.82248
-14.0738
-19.5381
-8.95397
-11.719
-12.4454
-11.5172
-11.3737
-12.5288
-9.41023
-15.7006
-15.5681
-12.6152
-13.7262
19.2216
18.8838
20.4852
20.1602
19.457
18.1612
18.5613
20.1045
20.5874
20.1931
19.9455
20.2512
18.5772
18.3296
17.6968
19.4885
18.3702
18.9852
17.9551
19.4566
18.761
18.5288
-5.02442
-5.23485
-5.01812
-4.7803
-4.56906
-4.62249
-3.4738
-3.91331
-4.76322
-5.42537
-4.72885
-5.07911
-4.08004
-4.29361
-4.07215
-3.96572
-4.61317
-5.16759
-4.53015
-4.58249
-5.04243
-4.88813
-4.70604
-4.99792
-5.24109
-5.0469
-5.17538
-4.3804
-4.42525
-4.33113
-4.50456
-4.48669
-5.17224
-5.12348
-5.10162
-4.79106
-4.40752
-4.89041
-5.00656
-4.8605
-4.91595
-5.07494
-5.29925
-5.33823
-4.85073
-5.20383
-4.85849
-5.00031
-4.75353
-5.20608
-4.43968
-4.75609
-4.55715
-5.27222
-4.91194
-4.56269
-5.26732
-6.14502
-6.47528
-6.28793
-7.86508
-4.97736
-3.40085
-7.21321
-7.0829
-1.51633
-2.45803
0.186922
-3.70599
-0.958112
-3.96956
-3.3006
-5.59002
-5.18388
-3.30283
-2.69294
0.865421
-1.5084
0.325028
7.66013
6.06894
5.40999
5.88564
6.4807
8.05817
7.93686
6.91467
6.19706
5.3683
5.75959
5.89644
5.54882
6.57695
6.43365
7.51631
6.30727
5.57219
6.22023
-7.50765
-7.07589
-7.293
-7.32678
-7.44615
-7.50093
-7.67779
-7.97669
-7.50667
-8.06132
-7.57175
-7.42038
-7.45147
-7.38594
-7.4398
-7.41465
-7.45488
-3.44229
-3.63981
-5.05587
-4.55729
-4.36677
-4.62738
-4.84603
-4.52513
-3.91642
-4.72744
-4.11213
-4.73487
-4.41015
-4.46424
-4.99522
-5.74471
-5.88173
-6.31843
-4.92814
-5.61339
-4.65141
-5.79072
-5.53587
-5.78783
-5.81946
-4.22522
-5.48427
-5.51558
-5.21372
-4.82087
-5.95453
-0.199711
-0.500753
-0.215145
-0.0325426
-0.154173
-0.252428
-0.333447
-0.36455
-0.0254958
-0.205602
-0.453889
-0.41857
-0.615178
-0.623427
-0.158102
-0.324502
-0.713342
-0.618907
-0.62373
-0.598515
-0.281508
-0.0818732
-0.71619
-0.0987606
-0.314516
-0.263132
-0.550764
-0.680694
-0.321251
-0.445103
-0.282449
-0.0932872
-0.0972622
-0.372916
-0.706868
-0.350053
-0.339568
-0.697437
-0.129774
-0.357548
-12.1382
-13.0137
-15.693
-16.5528
-16.2259
-17.0593
-13.2119
-14.057
-14.6139
-10.8807
-12.7275
-13.3505
-15.546
-14.783
-14.9647
-13.5072
-13.2844
0.77548
0.785915
0.386791
1.6799
1.02943
0.154516
-0.115464
1.75129
1.45784
0.494414
-9.93217
-9.84365
-10.3311
-10.6003
-9.63589
-9.59286
-10.121
-10.5567
-10.5415
-10.1426
-9.92314
-9.73073
-9.64151
-9.58772
-9.48437
-9.97705
-9.69106
-9.83961
-7.54805
-7.55117
-7.68015
-7.39144
-7.75975
-7.37966
-7.57767
-7.31124
-7.01312
-7.06099
-7.80198
-7.87084
-7.56245
-0.763611
-0.445488
-0.898784
-0.553368
-1.0749
-1.28455
-0.938856
-0.337174
-0.281037
-0.774466
-1.10346
-0.902352
-0.28371
-0.199226
-9.02147
-8.95023
-9.4232
-9.17286
-9.01498
-9.04469
-9.41487
-9.24315
-9.20424
-9.34487
-9.31861
-9.61678
-9.41208
-9.09204
-9.91833
-19.8554
-19.1444
-18.8436
-18.5847
-17.9467
-17.4173
-20.4905
-19.5452
-19.4443
-19.9778
-20.449
-20.1202
-18.4626
-18.1848
-18.5761
-18.9031
-19.0397
-19.6814
31.6955
31.6915
31.9475
31.2936
31.4081
31.3692
31.4777
31.2981
31.619
31.5964
-7.62893
-7.68733
-7.67869
-7.91415
-7.5809
-7.89188
-7.55113
-7.63644
-7.44169
-7.52612
-7.56109
-7.84858
-7.91907
-7.6804
-7.93615
-7.55069
-7.67277
-7.71953
-7.52537
-7.69588
-7.76409
-7.70336
-4.93793
-4.85655
-5.16267
-5.19155
-4.42553
-4.30916
-5.02619
-4.89309
-5.0117
-4.54892
-4.40313
-4.50822
-5.07203
-4.70507
-4.71682
-4.84241
-4.98212
-4.4658
33.358
34.3265
35.5932
34.2881
32.862
35.3425
33.5225
34.468
30.7801
32.6443
34.2158
31.3995
31.7284
30.4843
29.2076
32.3144
30.1211
28.9889
30.0626
33.6774
31.5087
30.5554
27.9562
33.2839
33.9931
35.4418
34.8785
39.3202
38.5551
35.7507
38.3433
31.5444
30.7921
39.1643
40.1817
36.7723
39.4781
32.683
32.7975
32.8546
32.6663
32.7717
32.6656
32.8408
32.7923
32.6408
32.7687
32.5872
32.6243
32.8432
32.7822
32.7849
32.8416
32.2544
28.0943
27.6731
30.0264
31.1327
32.9749
30.9192
31.0075
27.3217
26.6469
31.3485
29.1807
30.753
27.9819
30.0791
27.8221
27.5634
28.8648
29.442
28.3068
28.9886
30.1151
29.9554
29.2298
28.4951
30.1326
30.5381
30.0354
24.788
24.3367
26.5786
27.9485
16.071
15.0629
25.1568
25.0001
15.8015
18.0227
20.5689
20.4943
22.1986
19.6819
17.242
15.1362
30.5638
29.7226
30.0824
30.5966
29.7981
31.1203
30.717
29.9191
29.937
32.7814
32.35
32.0305
31.4795
30.3598
31.4934
30.9296
31.9883
31.3746
30.7196
32.27
10.4941
12.3341
7.03651
4.12122
5.30159
8.10504
15.4852
7.13949
10.9998
10.9541
4.71114
9.70701
10.4324
7.35063
10.3225
16.8917
16.9651
15.4426
13.4667
11.8042
20.7543
17.8756
17.9633
15.1485
19.0972
19.1618
19.1972
16.5668
15.1224
16.1908
16.3031
17.0785
17.3972
31.98
32.0258
31.8367
31.7314
32.3957
32.3679
31.9399
31.7811
32.5468
32.5554
31.9959
32.2808
32.5373
32.5037
32.3999
-9.88187
-9.66199
-10.0975
-10.0028
-10.4756
-9.4867
-9.41227
-11.1898
-10.8073
34.3173
33.4437
32.435
32.3789
33.1191
32.4966
34.7307
32.189
35.953
34.5103
32.2999
34.1572
34.7958
35.1574
35.6221
31.4087
31.7159
33.4953
35.6618
34.3322
31.9009
32.7773
6.63785
7.33758
6.67757
4.76297
5.78153
6.6878
3.58383
4.82893
5.13596
3.03873
4.23231
2.24359
3.0736
1.97694
1.54236
2.33261
3.55019
5.12072
1.22425
4.01529
30.7876
29.1016
33.8321
29.2987
31.19
37.6171
34.8785
31.063
34.8007
30.3975
32.8504
38.7173
36.5441
37.2695
40.6884
34.0155
33.2825
31.5541
36.038
30.0179
33.2099
30.9184
34.8199
39.2344
40.1312
38.2434
-7.82691
-8.73532
-8.24431
-7.86191
-7.95313
-8.59078
-8.2382
-7.83456
-9.17834
-7.69921
-7.95158
-8.69514
-7.92159
-7.67251
-7.55642
-7.78233
-7.90976
-8.67277
-8.05919
-7.42979
-7.44736
-7.40433
-7.33098
-7.88582
-7.50964
-7.85815
-4.7764
-4.54898
-5.204
-5.64925
-4.68592
-4.91121
-4.59377
-3.44891
-5.30688
-2.78778
-5.27253
-4.2098
-3.70767
-4.41141
-5.28713
-5.2331
-4.59791
-4.49536
12.7635
12.2643
8.83129
10.8411
9.47588
7.51614
4.26093
8.95434
9.21937
6.8095
1.91944
5.67373
7.076
28.0986
28.8857
29.2279
27.8615
29.5239
29.301
29.689
28.826
28.9564
27.9448
28.131
30.0187
29.385
-11.2207
-11.072
-12.0692
-11.3662
-11.4176
-12.0971
-13.3606
-12.8328
-14.3049
-12.1714
-12.3275
-11.9657
-13.392
-10.8271
-9.47184
-9.23464
-9.71979
-10.1084
-10.487
-10.5201
-10.733
-9.47299
-9.58538
-10.039
-9.4586
-9.06516
-9.66602
-9.53027
-8.68652
-8.24444
-8.49983
-8.67213
-8.65638
-8.39971
-8.19887
-8.21828
-7.95003
-8.29524
-8.38633
-8.58679
-8.64534
-8.49319
-8.09029
-8.31596
-8.13809
-7.79377
-7.83653
-7.70225
-7.74436
-7.64167
-7.66047
-8.01486
-7.74429
-7.65211
-7.82538
-7.80518
-7.78929
-8.33208
-5.7468
-7.1614
-7.22485
-5.71542
-6.61325
-6.75825
-7.53426
-5.47285
-5.35726
-5.95108
-6.10404
25.6049
27.2019
26.2882
27.4068
26.6572
27.5636
26.6701
25.9143
27.0267
26.1383
27.5354
25.3149
26.8571
35.607
38.4539
40.7825
49.0878
46.8937
35.3998
52.4918
51.6812
38.8094
44.4637
36.9872
39.1859
47.4042
51.3096
54.1101
42.4784
44.3231
41.0145
50.7252
48.6952
46.9015
43.9091
36.3328
36.3531
36.2932
35.0112
34.7388
33.4676
33.8805
34.3746
33.6587
32.6599
32.7521
22.5776
21.9092
21.6099
21.1996
23.6999
23.188
21.4672
22.8977
22.0631
21.1399
20.3578
20.6392
22.3747
23.7821
23.971
21.1552
20.6042
22.9272
20.0436
34.1691
34.4589
34.3386
34.3328
35.077
34.9089
34.6921
34.5175
34.5147
34.9183
35.6779
35.3786
35.8141
-6.73271
-2.57995
-0.113014
-3.97784
-1.99985
1.89909
1.7261
2.27601
3.13899
-1.30822
1.01932
-6.78298
-10.0666
-1.40558
1.87278
-4.58016
-2.18373
-10.4022
-5.46386
-11.1358
-4.16524
-7.80728
-7.65631
-7.65324
-7.7996
-7.45171
-7.59819
-7.58715
-7.97698
-7.53619
-7.33289
-7.87165
-7.63824
-7.57533
-7.5165
-7.58131
-7.58182
-7.23316
-7.45335
-9.4074
-10.7966
-8.61605
-8.80443
-8.21221
-10.0665
-8.93727
-8.949
-8.68088
-8.95927
-10.0509
-12.1602
-9.79427
-9.6388
-8.80265
-6.95347
-8.22008
-7.91829
-7.3969
-8.52628
-10.1276
-8.08521
-6.41492
-7.20905
-6.79587
-8.66862
-7.24541
-3.41798
-3.84993
-4.08757
-4.00063
-4.41412
-11.4941
-13.5389
-12.223
-13.5699
-18.0725
-11.4215
-15.2303
-18.4742
-17.7742
-22.385
-23.8042
-20.2806
-19.8156
-20.5706
-15.7492
-2.34375
-2.45696
-2.71175
-3.50603
-3.0647
-2.9235
-3.13422
-2.81156
-2.81643
-2.11673
-1.61316
-3.08578
-2.84441
-2.16218
-0.895492
-2.13842
-2.79091
-2.24275
18.2956
16.2823
12.1633
19.2559
6.12413
-4.31607
18.5772
8.80668
17.5998
11.5738
12.8976
-17.1461
-9.62768
-28.1882
6.69152
6.13465
3.20661
-6.80053
0.340648
5.57269
-17.544
-17.1243
-17.1916
-15.6592
-16.0531
-14.9082
-14.7765
-14.5903
-16.0034
-16.2222
-14.1982
-14.8713
-15.3849
-14.4643
-10.0592
-8.39187
-9.07533
-10.7731
-6.56068
-7.26276
-8.65623
-10.9493
-8.49719
-8.06611
-10.826
-9.61365
-5.81374
-6.49408
-5.77011
-6.34146
-6.4098
-6.66534
-4.66079
-5.69385
-4.86943
-7.42245
-10.7673
-6.00497
-11.7608
-9.90445
-11.7459
-11.0602
-1.73324
-2.21953
-2.07669
-4.09477
-6.24231
-6.73945
-8.57809
-8.67237
-3.38596
-6.41015
-3.89081
-4.01321
-0.595768
-2.2529
-2.50904
-2.18152
1.19918
0.97168
-0.0271055
2.97187
3.00051
-0.45606
-2.7
0.175339
1.28254
2.80242
3.35504
-1.12498
1.29849
0.990159
-0.488617
0.711977
14.0286
14.6535
11.7325
12.1436
14.7195
12.8672
12.3931
13.0031
13.5027
12.993
11.9464
12.5475
12.6722
11.737
14.5615
-9.83105
-7.09109
-7.86834
-9.14728
-10.1648
-9.45444
-6.96093
-9.54278
-4.78039
-4.42386
-5.11806
-5.05843
-5.14001
-5.48181
-5.43355
-4.72675
-5.43924
-5.56895
-4.98418
-5.74386
-6.89331
-6.47894
-5.2629
-5.34971
-6.56061
-6.40241
-6.56139
-5.64419
-6.3008
-5.17926
-5.68425
-4.77842
-6.10933
-5.7014
-6.25308
-5.49612
-5.22123
-5.84605
-8.00602
-7.74651
-8.28074
-8.02771
-7.82571
-8.25612
-8.8773
-10.1641
-9.5146
-8.87026
-8.49718
-9.18563
-9.12877
-9.95659
-9.47906
-8.65269
-9.09282
-9.4085
-1.57507
-1.38131
-1.38005
-1.57357
-1.70106
-1.76789
-1.36131
-1.39729
-1.72368
-1.7842
-1.57268
-1.91173
-2.2882
-2.33421
-1.45916
-1.94442
-1.76609
-1.58201
-2.31848
-2.1839
-1.77633
-1.56667
34.9486
34.5953
35.0718
34.7012
34.1326
34.7978
35.3133
34.2058
34.3339
34.2288
33.6528
33.3546
33.5749
34.5686
34.0742
33.8317
-13.7102
-13.2883
-12.8043
-13.6081
-14.7802
-13.527
-11.6821
-11.9689
-11.2412
-13.8361
-12.3285
-11.9214
-13.0887
-11.4623
-14.5933
-13.2305
-14.0448
-15.4294
-4.86263
-4.99121
-4.46347
-4.26682
-4.72556
-4.75807
-4.96894
-4.34232
-4.32535
-4.02057
-5.05898
-5.13628
-4.64538
-5.08257
-4.52048
-5.02344
10.6655
11.3872
13.0473
11.4815
10.1782
12.3385
10.7727
12.7739
13.2806
11.4691
12.0012
11.6976
11.4553
13.0294
10.9505
9.55822
10.9075
9.38318
9.79815
10.801
7.02772
5.28654
2.66182
2.42269
1.02791
0.940648
4.85457
-0.164542
10.588
9.33789
-1.78219
4.13427
8.96822
7.52009
1.2161
4.82226
-9.90434
-9.8123
-9.35315
-9.04481
-9.04503
-9.17869
-9.11454
-9.14836
-8.92658
-8.0993
-8.06671
-8.30515
-3.85421
-3.73067
-3.97255
-3.44124
-3.65555
-3.91279
-4.01479
-4.06749
-3.37242
-3.50212
-3.66535
-3.56888
-4.11997
-3.63811
-3.35122
-3.50458
-3.84281
-7.9578
-8.15073
-7.79209
-7.80904
-7.85396
-8.2341
-8.1398
-7.74414
-8.08784
-7.81669
-7.80088
-7.98295
-8.30142
-8.54173
-7.85027
-8.1713
-8.58219
-7.75062
-3.19604
-4.7502
-4.08082
-3.35496
-4.96839
-4.72217
-2.99259
-3.77543
-5.14981
-2.52534
-2.30314
-3.09428
-2.57239
-3.44173
-2.55595
-2.61142
-3.13497
-3.38571
-4.47061
-3.89042
-5.89066
-5.77545
-2.99256
-3.15528
-4.83629
-4.54887
-3.46045
-3.90879
-5.41339
-5.29269
-4.00936
-3.75889
15.9079
15.5724
10.0766
12.9374
14.8248
15.6401
15.4869
14.172
11.2687
14.1624
11.0118
13.556
13.4241
11.9625
35.2918
34.9225
33.8052
34.0096
34.0322
34.3782
35.041
34.7477
33.7177
33.9325
33.8087
34.5011
34.3188
34.8673
-1.62369
-1.50717
-2.04508
-1.96647
-1.89311
-2.09966
-1.76501
-1.95345
-1.75396
-2.06739
-2.26067
-2.13679
-1.66565
-1.81128
-2.17005
6.10085
6.49856
9.14666
9.2111
5.94127
7.19092
7.23628
7.68004
8.94208
9.18613
5.16434
5.45598
5.99145
6.58169
7.76756
6.37515
7.23281
-6.42413
-5.75767
-6.15068
-5.99962
-8.43252
-7.48657
-6.02257
-6.6685
-7.55167
-8.45979
-6.55505
-6.89145
-7.05312
-7.21986
-6.19094
-5.56616
-6.64283
-8.19997
-7.42611
-6.5674
-7.61251
-5.96121
-9.19872
-8.2109
-8.41255
-8.95823
-10.4257
-11.2552
-9.14072
-8.81778
-8.80527
-10.2005
-9.57613
-9.79976
-9.86878
-10.2798
-9.47897
-6.58293
-6.63788
-6.56324
-6.6527
-6.39292
-6.43313
-6.29742
-6.41314
-6.27298
-5.99921
-6.17245
-6.20781
-6.14368
-6.46523
-6.06756
-6.1387
-8.39266
-8.42615
-8.54472
-8.58713
-7.91971
-8.57255
-7.7548
-8.52789
-8.41222
-8.2448
-7.98806
-7.82834
-7.13861
-7.50614
-7.26188
-7.9543
-8.07052
-8.00771
14.2499
14.3317
13.345
12.9982
10.2429
8.42688
15.3006
14.5305
7.59254
15.4807
12.9813
11.653
9.0113
11.693
13.9334
14.5446
13.2244
9.3749
10.6309
10.1801
8.52923
8.52191
9.79256
10.4738
9.22422
12.0842
11.9299
12.0898
10.4467
11.8301
10.9744
9.53386
28.92
28.2959
27.6063
28.6387
29.8639
28.5432
30.0744
30.1048
28.6518
27.9025
26.9916
28.5478
27.3988
31.2227
30.2189
-5.03669
-4.78866
-4.54753
-3.99419
-5.19038
-4.78036
-4.1093
-4.03883
-4.57182
-4.22882
-4.67686
-3.73136
-3.99177
-3.5177
-3.55861
-4.17963
-6.90955
-6.71338
-7.56509
-6.80207
-6.55218
-6.65611
-5.01435
-6.61871
-6.66895
-7.26261
-5.02299
-5.60515
-6.30034
-24.8413
-18.3706
-16.6771
-10.87
-24.8128
-30.229
-6.12439
-13.5944
-10.2134
-15.7758
-17.2557
-21.9631
-19.3595
28.8927
27.7997
31.7492
29.073
30.4343
31.991
29.9647
27.2943
25.1462
26.3836
29.0389
30.5435
29.5165
21.1766
23.0692
29.3909
28.9294
22.8033
21.2858
23.8567
9.88871
9.75692
9.55501
8.66518
9.64034
9.02497
8.7123
9.37729
9.67848
9.62685
9.18868
9.97294
9.75988
9.33287
-2.8748
-2.43183
-2.61195
-2.87356
-2.40012
-2.91628
-3.09784
-3.16511
-2.8414
-2.97017
-3.16523
-3.36535
-3.0967
-2.41664
-2.57823
-2.28983
-2.23411
-2.83041
-10.5099
-10.4709
-10.0536
-10.3989
-11.3617
-11.4577
-10.4728
-10.894
-10.6303
-10.8711
-9.72749
-10.2181
-11.1443
-9.68599
-10.3641
-10.0971
-10.6919
-10.7884
-10.7987
-10.5368
-3.97407
-3.4773
-3.21298
-3.62448
-3.6274
-9.17157
-8.81884
-10.3816
-9.84846
-8.93203
-9.7948
-8.80291
-9.09226
-9.29851
-9.82531
-8.81816
-9.39009
-8.83726
-8.66256
-8.58362
-8.2237
-8.82372
-8.07
-8.6794
-7.39507
-8.9304
-9.03634
-8.40303
-9.25875
-8.7877
13.3849
13.7296
13.752
13.4439
12.8762
12.7486
13.1787
13.629
14.1754
14.1699
13.5922
32.3231
32.9661
31.3815
31.2925
32.1455
33.4143
33.9961
32.3607
32.19
34.6416
33.5208
36.2584
32.3338
31.6466
33.497
14.5465
13.7646
10.8356
12.2033
11.6497
13.0313
11.3603
9.92047
10.1167
11.412
13.0678
12.135
13.5139
10.2773
10.7637
12.2044
8.62998
8.65832
10.6888
8.20531
6.92829
25.2095
26.2164
25.6401
24.637
25.1073
24.4592
21.8757
20.9084
19.2651
19.8343
20.1623
20.0058
22.9517
22.9856
20.9691
21.5885
23.867
40.2382
42.3928
42.8168
40.2761
39.4
41.1133
40.3365
41.0423
42.3782
39.635
43.3095
40.1122
39.142
45.796
44.3866
44.278
40.944
43.9826
44.9535
41.3874
0.527712
1.25945
4.96223
3.82088
10.3262
1.06966
2.56439
7.77614
5.83756
8.30494
13.5541
12.9544
7.70952
11.1909
-9.53646
-9.46047
-9.38793
-9.24208
-9.47459
-9.54818
-9.29388
-9.27511
-9.37061
-9.11172
-9.19135
-9.12048
-9.15243
-9.04002
-7.39264
-7.07387
-7.00351
-7.34131
-6.89709
-7.34609
-6.94363
-7.44025
-7.16853
-7.29808
-7.16913
-0.152992
-0.101295
-0.409043
-0.463659
-0.82508
-0.126343
0.0232976
-0.422391
-0.203903
-0.466869
0.0518391
0.064819
-0.148733
0.0553727
-0.725401
-5.97563
-6.05779
-6.08249
-6.20917
-6.05851
-6.26353
-6.41141
-6.14112
-6.30254
-6.80056
-6.84141
-6.66885
-6.67515
-6.29229
-6.09607
-6.15702
-6.27883
-6.1622
-7.5225
-10.5432
-7.24712
-8.64944
-7.32862
-10.2635
-8.70423
-7.79734
-6.53691
-7.52616
-9.32547
-6.31008
-8.21036
-8.87341
-8.18367
-9.23329
-7.73056
-8.27538
-5.4334
-8.31794
-7.6204
40.9106
44.5653
43.1726
44.993
40.8467
45.0373
46.0923
43.4148
47.3541
49.0884
45.5738
37.5154
38.3112
42.8351
38.1406
4.24251
4.59218
2.61295
3.03363
4.92903
3.13105
5.41791
3.74023
3.6669
3.12441
22.8116
22.7668
23.4246
23.4324
21.9949
23.2434
23.825
23.6999
23.7384
23.6625
21.1708
21.7076
21.452
21.9892
21.649
-15.3728
-15.0738
-16.55
-16.3654
-15.2467
-15.8684
-16.1269
-17.5248