/*--------------------------------*- C++ -*----------------------------------*\
  =========                 |
  \\      /  F ield         | OpenFOAM: The Open Source CFD Toolbox
   \\    /   O peration     | Website:  https://openfoam.org
    \\  /    A nd           | Version:  10
     \\/     M anipulation  |
\*---------------------------------------------------------------------------*/
FoamFile
{
    format      ascii;
    class       surfaceScalarField;
    location    "17";
    object      phi;
}
// * * * * * * * * * * * * * * * * * * * * * * * * * * * * * * * * * * * * * //

dimensions      [0 3 -1 0 0 0 0];

internalField   nonuniform List<scalar> 
146459
(
-2.02288
2.66096
-1.4252
0.787125
0.78915
-1.26609
-1.54595
-3.22544
4.87043
1.01597
-1.15877
-1.27752
-2.15697
-0.943179
1.81288
1.28727
-0.354956
-1.80202
1.78016
-2.36179
-0.68445
6.54078
3.20206
-8.33852
-1.40432
-2.06236
3.5205
5.08264
-0.019073
-2.48005
0.859761
0.677107
-2.59923
-1.68283
2.93166
1.44861
-25.6898
47.7028
-24.6695
2.65661
-28.0021
20.3256
-18.0134
28.2286
10.7054
-16.924
-22.01
55.2014
10.2806
-37.2534
-14.0134
-23.3524
9.36362
21.2739
-6.70577
-3.86276
52.6484
23.8269
-19.6748
-1.04431
-28.4506
-35.1859
40.2842
-10.5417
12.4148
-30.3237
-38.6213
8.40479
41.5884
-9.6148
-19.5587
10.03
6.33004
25.2283
9.95348
23.8802
-4.21078
-29.6229
0.173411
24.1728
-14.3927
16.6796
7.26827
-0.067731
-10.2454
9.57061
17.3544
20.0876
-18.0804
5.26104
-11.5385
22.8233
8.80291
29.2246
-17.3318
32.2621
-44.1548
15.3375
3.64163
-9.59174
23.8278
-14.0626
-31.1343
17.3187
-11.2263
-3.91723
9.69742
-25.7053
24.1697
16.8731
-10.1888
16.7456
34.873
4.03222
-14.7356
10.23
9.68053
-3.62356
-4.21216
0.94203
6.89368
-6.18242
-3.73098
6.28984
7.22109
-6.58426
-4.84899
0.422139
4.40532
2.39363
7.4999
3.62687
-10.7046
-18.56
-17.9821
21.3145
15.2275
-18.3266
22.23
-3.77542
-0.127978
-5.05343
-0.491446
-12.7817
-16.0566
-1.22156
-1.28181
-11.9005
-5.69151
10.8819
6.7101
-4.13526
17.5583
8.80696
-16.3106
-2.92985
15.465
-15.2241
-6.13991
-24.4599
4.70748
15.6172
-17.5409
-7.41047
2.74271
-17.6383
-3.08648
-9.15775
10.274
-11.258
-22.0367
-11.6582
-8.37296
-2.29524
18.0942
-7.42601
-8.1602
-0.754624
0.541861
-11.6919
21.612
-12.2153
-8.44647
0.69149
-0.405223
9.34138
-1.07795
1.16902
-9.43244
-5.41073
6.30564
3.13604
8.98348
-8.93131
-3.18822
-5.61809
8.75413
11.0288
0.419815
-12.5266
-0.799244
1.51802
8.2647
-0.34603
-11.3152
12.8302
1.28022
-9.79171
-13.8807
1.38957
-12.9465
0.187777
-1.47991
0.508308
0.783822
-0.651018
-0.206585
1.04538
-0.497376
-0.579028
0.425385
-0.0366152
-0.206663
-1.23663
0.502672
-0.745872
0.111766
-0.924169
1.32071
-0.720236
0.334626
1.66477
0.404811
-0.584818
-1.48477
0.22488
0.797118
0.642777
-0.89959
0.545442
0.0681139
-0.562893
-1.72157
-0.270415
1.06782
-0.76578
-1.16246
0.367345
-0.177327
-0.460433
-0.284777
-0.0265867
-1.2865
0.547309
-0.788731
-4.19975
10.3675
6.82779
-12.9955
-1.95126
-17.3075
5.60228
13.6565
-16.4088
10.2578
-9.88315
-23.8331
-6.45382
16.123
-9.66918
-12.3178
13.8223
4.09784
7.90394
-24.204
6.41696
-10.8677
9.01575
-6.4173
2.46308
-5.06153
-0.616279
5.58688
4.04515
0.137522
-1.26045
-5.29438
7.95829
-1.61443
-6.20634
12.1908
4.96772
-9.2002
6.44632
5.12818
-6.90959
9.37268
0.327627
6.91387
-8.50195
-9.55528
8.26848
13.2405
-8.27276
0.00427943
-6.53801
0.867356
-6.29863
11.9693
-8.99077
-4.6198
7.07255
6.04532
-7.00068
9.86007
-8.90472
0.150429
5.8949
-7.50101
-7.40299
15.7714
-0.302309
-9.27196
0.583499
-6.60094
-4.17995
-10.6532
7.3321
-10.7577
1.95795
-0.051716
-8.67171
-2.03427
-7.63401
-1.68966
-4.54784
6.45051
-9.53668
5.49513
-17.0437
10.7643
-0.340478
-0.56373
9.25619
9.99609
-13.1727
-0.997551
4.41678
12.9002
-9.90518
-7.41178
10.6797
0.44046
-6.70334
4.43239
19.1475
6.52377
-12.0428
10.6537
-5.13469
-9.94797
20.9041
6.21484
4.9248
-23.1442
12.0046
4.72249
-10.5504
5.22548
-10.2059
16.874
7.03873
-15.5008
-8.41189
-5.66169
16.2902
6.24545
12.2164
-3.93689
-13.9412
9.45471
-0.399787
-2.01619
6.79659
18.9483
-2.23493
10.8817
-9.04656
11.0858
3.21173
-2.0811
23.9996
-6.11728
-6.54129
-7.80129
-2.091
16.4336
-12.9184
-9.03523
15.4124
0.0291267
-7.83042
-12.913
0.0237331
-1.16178
-24.5777
16.7043
6.57371
-19.6668
11.9313
-8.07441
12.5571
-20.5101
-10.1565
22.5922
12.5924
-27.9095
-5.19306
2.43592
-3.1385
-18.7124
-2.72679
-12.4242
-3.62738
-5.3945
-24.6106
-13.7687
-10.9043
-6.91438
11.7104
-0.940048
-3.30108
-7.46932
-5.34069
0.128871
5.01456
0.197256
5.55842
-13.4161
2.51698
-9.41671
8.55518
0.990396
8.99495
-12.8532
-1.4814
4.03418
9.15767
-13.4925
4.6958
7.31533
-0.946562
-2.43108
-10.1149
7.43644
-3.36193
11.1931
-3.14472
7.0145
12.7338
1.29464
10.176
13.0049
0.0976093
-6.23548
8.28018
-2.14231
-8.47243
11.3223
-2.75227
1.32954
-16.0375
-15.2716
-1.37656
13.7422
2.9059
11.9394
-25.8815
10.5629
16.8949
7.77846
-16.3932
-7.57965
8.55145
15.9231
0.198812
1.19953
9.22652
0.896261
11.6773
3.26451
-0.0263981
17.8044
-10.7617
22.4125
-5.8277
5.24759
10.3839
-9.80379
-8.02788
4.56506
-2.36488
-16.9455
5.51922
3.39839
-6.13849
-9.36579
20.7519
5.89566
-7.46909
-4.0586
-5.30719
-3.85874
1.62537
-16.8411
19.0745
20.687
-21.3784
-3.16731
3.98605
13.2961
3.40486
16.4624
-1.76277
-13.0743
5.33849
18.9445
-7.82059
5.81801
11.909
-13.741
15.4663
3.93949
-19.2989
-0.106955
-2.08401
17.5503
-13.6806
15.8573
-1.37192
20.781
-14.0706
19.3666
-14.9206
0.822301
6.12019
9.69861
-16.6411
4.46437
6.80713
-10.4492
8.27347
7.16524
-10.9743
-2.92798
17.8079
-6.60641
11.5702
-8.37798
0.0508827
6.75625
9.74949
7.62005
-12.4191
9.42427
-4.6252
-2.54884
15.6302
-5.46133
0.160687
7.00455
0.992575
-1.8415
10.7421
6.91694
15.1102
11.8555
10.0828
-4.88328
-17.055
-4.50148
8.79883
7.55816
5.5813
-12.2233
0.700932
18.0297
-6.50732
-6.81855
3.39408
-6.28191
11.8632
-16.6131
-4.88236
12.3402
9.15524
11.1643
-6.77822
-20.9991
15.7142
-9.06131
-15.3759
8.72308
1.65372
7.89546
6.16498
-5.99202
18.5562
-20.7228
8.00188
7.15919
2.50207
-17.1464
7.48514
6.51926
11.5536
-10.9137
-5.86545
-17.5508
6.04978
17.3665
-21.0941
3.65764
11.571
-4.92877
-6.11246
-10.0529
-14.8873
-7.59234
5.63168
7.06234
-10.1919
12.1509
11.6215
-0.0965956
0.0286697
1.35341
-5.08558
-6.70471
10.4369
-8.93026
16.3334
-11.6956
10.2676
12.5622
-11.6123
-3.97485
6.6661
-10.6796
-1.47138
2.33804
-5.00078
-11.3699
9.67436
6.69628
-10.0796
5.07879
9.24515
-2.21572
8.76175
-15.7912
-0.834422
7.61368
-16.2887
6.45929
7.08914
2.08312
-1.55858
-0.687214
-7.36679
0.266783
7.78722
-9.08449
-1.29666
9.69394
14.2555
0.378804
-3.63993
-10.9944
15.0072
-9.83618
-2.22931
-1.11207
-0.311116
-6.12283
0.576554
5.85739
-9.09092
8.7798
-3.93202
-6.8668
7.34722
3.4516
8.46729
-12.3993
-8.88236
-0.208559
12.3792
1.13125
0.362767
-13.8732
-0.228653
12.6079
0.922266
-8.67337
8.4688
0.980039
-9.08607
9.16942
-0.929278
1.01024
-7.92352
0.790453
3.31286
-6.02121
-10.7583
7.89137
-12.9442
15.8111
-10.5737
-0.18458
-4.75716
17.6245
-4.97601
7.30857
-7.60516
-9.35855
9.65514
-3.79851
11.1071
6.10637
11.1045
-10.1615
-7.04941
-4.46734
8.26585
-5.35358
-10.5174
-3.15339
1.3137
7.12372
13.7992
-17.219
-3.704
-11.6577
14.0243
3.57815
-19.0932
-13.5675
-1.24357
-19.369
9.37966
-0.911831
4.94399
-5.59276
1.5606
-8.38321
7.47138
-7.16966
0.323948
-4.71249
-5.32475
-1.84491
-7.55237
10.0413
2.09751
-20.522
3.40543
1.04311
-5.40575
0.0809956
-9.46261
6.15438
-1.86765
0.99735
-2.91143
-0.387277
-1.48037
2.68138
-0.923425
-3.80619
2.04824
1.66566
0.456381
0.559343
0.90705
0.789055
-2.61953
-0.382615
1.28967
-2.07017
2.29518
-0.60763
2.8861
-4.16721
0.902388
-1.23365
1.54417
1.98466
1.78925
-0.136797
-2.1876
-0.784185
1.2673
0.0108037
-0.0584043
-0.720869
0.76847
0.091695
0.298155
-0.379047
0.547583
0.127722
-0.893588
0.218283
0.172817
0.65975
-0.284984
-0.0776741
0.389208
-0.138717
-0.025831
-0.0518431
-0.0771671
0.243556
-0.224794
0.78512
0.802808
-1.46021
0.64912
0.227695
-0.776977
1.34893
-6.48166
6.16515
-18.2359
18.5524
-22.2673
2.94162
12.844
-2.54547
-10.6608
-9.06095
17.8835
-11.4612
-8.96773
11.5086
-5.96392
12.3388
-4.65827
14.8624
-4.03895
9.79196
10.6725
-2.48136
-19.6524
4.70857
-16.6016
-0.753576
-0.880695
-7.86001
-19.4024
12.52
-6.87836
7.31557
-12.9572
12.7483
-0.981875
-2.20916
6.91772
-17.2197
-5.10642
8.80075
9.05393
-1.23007
-0.0873453
0.943685
0.373726
1.78052
-0.45775
-2.55283
1.69317
-0.0691337
1.4287
-1.81731
-1.06662
-2.22594
-0.96453
4.25708
-0.230764
-1.0637
0.22785
-2.4567
0.235435
0.976753
-1.28132
0.115419
0.66517
0.763528
0.677393
-13.9881
13.4742
-13.6621
14.1761
2.31114
-3.25099
-13.0482
3.4239
11.5611
-20.1225
5.13754
5.63678
13.5889
-15.8018
-5.23847
7.5496
12.2871
-6.23512
-0.415247
-0.329382
0.0687907
12.5477
0.12504
13.4639
11.6861
13.1345
6.44767
-7.18732
-16.3585
13.6682
9.87757
-12.5256
5.46
-0.121725
-2.80311
-4.32394
-9.2314
-5.19486
-10.1338
8.20896
-8.18977
5.44081
-3.48
14.2271
-12.4535
3.70191
-5.47557
-9.24913
16.1383
7.338
-7.58413
-5.98894
-16.1971
-3.84057
10.8704
-7.1685
-10.7183
-4.64085
7.16939
-11.046
-4.86714
-11.8093
-1.4328
-1.26759
-0.111011
2.81141
1.68596
-1.02302
0.482581
-1.14552
-1.16325
0.339728
1.0319
-0.208379
-1.19186
1.39167
-0.199804
-0.00194671
-1.18992
-6.46873
0.66011
19.5744
-13.7657
4.56593
-11.5044
0.469731
-13.1497
-6.03468
19.8445
-10.5808
-5.67975
3.11088
14.0781
-11.0163
-15.6934
12.6316
15.5303
-7.48683
-24.3454
2.7483
1.37692
2.81371
-5.41482
1.22419
3.68441
-4.4082
2.10071
6.62477
-5.9575
-4.93375
4.26648
0.608097
5.5402
0.476465
0.533566
2.88824
0.737882
3.48009
1.19219
-5.17039
-1.43662
-2.99812
-0.217895
-0.481274
-3.86523
5.50443
-1.15793
-1.73342
1.99003
0.855868
0.225951
-6.25221
1.12224
-3.26449
-2.67944
-6.54656
5.36078
-5.64744
1.23458
1.19642
-6.92797
-0.849381
-0.822758
-4.87442
-5.37458
-3.69827
4.07193
-7.88052
-5.20664
5.43288
7.65428
-0.794282
-2.39108
-4.69516
8.38046
-4.26599
-4.90874
-4.63813
5.02194
7.99664
8.44229
-4.21732
-8.49096
-0.488131
4.29229
9.79242
-3.55045
-8.63305
1.43684
3.14894
10.6403
-0.185431
-7.63701
3.45061
-1.07244
-10.7819
-11.633
7.0101
2.87214
-6.36905
1.71137
5.33676
-7.8185
0.770374
-6.12647
3.95068
3.88716
-14.5421
-0.34697
7.99248
6.89656
-5.21599
-0.890058
-8.43603
8.39857
-1.4022
-3.05741
-3.93896
-5.10186
7.37396
-10.1529
4.70405
-5.31236
-10.0565
2.39097
-3.12307
6.06885
-2.67042
9.01207
8.50179
-4.29166
-5.61233
-1.97686
2.66015
-11.9193
3.95593
0.0659123
7.89749
-5.59774
-7.21165
9.27799
-1.47562
-6.89416
6.55185
-2.72696
-8.11656
4.18958
0.385417
-5.01053
1.73734
3.33911
-4.82999
-5.77829
2.80385
-9.03257
-15.1599
12.6013
15.4183
-12.8597
-2.58318
-17.5646
8.67435
11.4734
-26.7366
10.0952
14.0582
9.01796
-13.4411
-13.1415
-9.93733
-7.78127
0.536987
-12.3067
-1.20746
12.9772
-1.02281
11.3718
-9.81201
12.8754
-13.6999
-0.198368
-11.3688
10.0975
9.94568
0.629703
-1.64731
-14.1423
-16.2315
15.5882
10.7385
9.74391
-11.8132
15.9413
-13.0032
-0.995174
2.21179
-2.50203
-1.43002
17.9146
-14.2728
-0.0647546
-2.25625
2.26404
0.0569602
-0.215074
0.15032
-2.27281
-1.32412
0.00939412
3.58754
-2.48789
-8.72005
-2.45803
6.16583
5.01225
0.218906
-1.51823
-7.42072
3.67828
-2.4725
-3.69367
-0.230538
2.5847
-6.88828
4.03738
0.39287
-1.13515
-5.53422
0.290318
-0.486013
0.346014
-3.10109
-0.196481
2.46992
-4.47675
-0.42889
6.36418
3.41201
3.9088
8.45365
-15.3337
2.9712
8.66113
-11.9485
7.19616
-18.78
-5.69965
11.487
12.9926
-15.9504
0.104859
-2.93441
-6.46778
-12.2233
17.1769
1.51425
8.35155
-4.83312
-9.98622
7.79242
-7.49301
8.15425
-0.190547
16.6441
-9.39139
-1.52188
-1.03522
-16.3735
11.0879
8.65609
-24.5771
14.9705
-16.1059
7.53396
-14.8283
0.312421
17.8083
-2.73297
10.513
-5.10936
12.4046
21.8095
4.57448
3.88776
-7.11653
-5.40428
12.442
5.48328
-8.24627
-9.67901
3.71208
4.88478
3.84515
8.6996
-3.31889
-1.49295
3.41533
8.4332
-1.23158
-3.7472
8.39411
-2.61158
4.25214
-5.06851
-12.9309
6.36637
7.55459
-9.54288
5.70037
9.13037
-2.193
-1.4541
6.98812
7.02703
2.89547
1.48107
6.70286
-10.2139
-2.64789
-0.893641
-17.5665
-13.0787
-4.07136
2.07444
23.5538
-21.5568
-17.4719
0.180987
13.2195
-15.4681
-3.64683
1.64305
-1.82466
-12.8064
16.7055
-8.64285
6.99918
-7.42814
-11.5152
3.47524
11.2823
-4.54255
-14.464
7.72424
18.291
3.11731
-10.126
-7.69795
13.1825
7.7129
9.78245
-6.83786
-10.6575
15.0174
-7.59782
0.293346
-19.5855
8.49015
3.39737
-6.68571
-14.2748
14.1221
-2.90423
-4.64744
-10.3785
-16.0279
-10.2657
6.64228
6.07645
-2.45298
7.72331
-12.9582
-5.03089
-10.3887
13.3303
3.0283
-5.96991
11.5536
-16.5144
-5.42789
2.99717
0.0547109
8.5017
12.5416
3.78581
-13.9842
14.2787
6.34769
0.101604
-6.36245
7.6323
16.2276
-17.7255
-6.13449
14.741
-7.00708
12.0136
-2.90885
1.97246
10.7427
-0.17352
16.3468
-4.8844
4.76525
15.6449
15.4428
1.58746
12.3986
0.938497
16.5739
-1.86749
16.8047
-8.36885
-7.23126
2.94693
12.6532
-9.31485
-2.82874
3.77474
0.822127
-10.8662
0.729203
11.7092
-12.5607
1.67363
5.80871
-9.93886
1.30141
-0.182603
4.66054
6.02786
9.98215
-10.2013
-5.91047
14.8853
-5.92271
-2.85559
-1.16056
3.46541
-7.82448
-1.56364
2.68698
-10.0877
-1.50486
-8.36886
-4.29074
3.25364
-4.87337
-3.96977
2.74735
9.02952
-7.8071
3.27746
-3.85265
-3.39458
-2.31305
5.27541
-5.81795
-8.0145
3.54116
-6.2419
-12.4853
27.3662
-7.00557
-7.8753
5.06845
-16.7657
-0.788128
5.49174
22.7148
-23.138
-0.690513
30.5054
-6.41176
-23.4032
7.39648
14.3106
-35.2076
13.5006
22.2794
-17.4781
5.01351
20.1544
2.1983
21.0149
6.71334
-2.44523
18.8548
4.60537
17.5763
2.25787
16.3762
21.5257
-8.40837
-8.66037
35.9235
25.5441
29.0574
-17.5634
8.04111
-2.08198
-10.5393
4.58016
-10.8137
17.0195
1.8353
-12.7235
4.37904
-1.53296
9.87744
-5.39625
-12.9897
20.1056
-1.7197
14.9562
-6.7283
-13.6241
-1.64764
3.88028
-11.3136
3.72271
5.50888
19.8976
-19.6455
-10.7914
-10.0044
19.0883
-7.23651
4.79755
0.791322
-2.5264
-11.4384
-5.44627
-1.06975
-3.62004
-6.10635
-9.91909
-16.6055
8.77533
-2.17423
-7.76642
-12.4591
-4.44595
-7.10667
-2.84198
-10.9901
6.06569
-9.81433
4.04477
0.337945
1.68613
-7.16228
3.78157
7.42549
1.00396
0.845834
4.53343
-0.0945332
-1.63505
3.55611
1.31527
-3.23005
-0.89383
7.90545
-3.59525
1.36915
8.00961
-4.73927
-0.933995
-2.33634
2.82669
7.60015
-2.41723
-1.49469
6.8578
-1.17505
5.48897
-0.83685
-11.9887
-2.43863
15.2642
-8.79996
10.1441
-2.18099
-13.8834
6.68086
-2.18373
9.38627
-1.65631
-0.0613234
-7.08232
-2.54894
-11.0961
-10.0732
9.959
-2.32444
-11.7912
-2.10585
11.7392
2.15786
-5.64163
-20.033
-3.55358
0.161245
-6.4994
5.82289
10.9408
-10.2643
-19.9635
-0.453834
13.918
-6.92114
7.99394
-15.2086
14.1358
7.28044
-19.8432
-12.2255
-3.04199
11.7139
-5.77024
-6.19936
-10.7153
0.442265
14.1007
-4.08739
-10.4556
17.9087
-4.81598
-12.6505
-5.55675
16.5642
3.09324
16.4479
-4.09588
-3.16508
11.961
-13.6119
2.50031
8.32116
-13.9865
-0.352415
-12.8371
1.85614
11.3334
-7.3975
0.351639
6.69344
-2.18093
6.74442
7.41409
6.85284
7.47155
16.5068
8.51652
-10.1036
2.44923
-6.9652
-5.90059
8.57454
4.79759
-14.1297
-2.89719
11.1263
-3.16391
22.1841
0.207481
-4.94258
-17.449
13.9026
-1.36426
9.64576
5.14712
-11.426
20.1815
-3.79838
17.5862
-8.10807
-5.67973
21.1329
-12.1241
-12.8071
-22.5926
29.2784
-6.47832
-5.47271
-13.1576
-3.96228
-7.8749
-1.67837
14.7004
-13.4709
4.23175
-8.5906
9.67974
16.497
5.88956
6.65269
-16.1118
8.53043
-5.43665
-19.0633
8.38814
2.25719
-19.8179
5.7415
-11.5924
0.454381
17.398
-17.1759
6.85904
10.7712
-16.9071
14.8604
29.8418
-25.8086
-22.8586
18.8254
-1.86023
16.1145
15.5876
-4.22469
27.3593
-10.7949
-12.3398
12.43
-24.2501
29.8212
-18.0011
-16.7192
3.34057
15.3194
-32.275
15.0953
7.03872
10.4368
-41.7256
-20.2128
10.5324
-14.4076
25.5023
-0.467272
14.104
16.3244
-29.9611
-12.314
9.86019
29.244
-26.6384
7.83114
-27.0455
12.1707
-10.1155
45.776
-28.6656
-2.79426
-14.3162
24.8517
30.5088
-9.58452
-21.1616
28.5094
-20.3558
13.0081
-37.4534
-12.3738
46.9543
6.40669
-5.23013
-31.0225
-1.20082
12.8857
8.70568
-41.9472
-19.558
-20.5611
25.5858
14.5333
-15.7606
3.28458
-7.08204
24.4284
-30.6353
25.8069
-19.6
26.6645
10.6495
-4.31751
-26.8935
25.9809
-1.8812
-34.9014
6.14731
-24.7144
0.291066
3.86218
-23.2453
-17.2297
21.702
4.39595
31.7618
16.6048
-29.444
3.94438
9.10117
-1.56569
-11.4799
-11.9906
11.4563
4.47863
5.70867
-12.8094
-4.8898
-8.7127
14.7071
2.14425
-8.13866
11.2902
-16.5667
-3.43629
-4.50517
-2.46949
18.431
-3.73261
8.32861
-1.04978
5.63356
10.1233
6.50786
11.391
-3.53806
14.555
-6.79747
-0.827255
2.88302
4.7417
-4.32912
0.230474
-2.69882
2.15772
-1.69858
-4.78826
0.63535
0.695113
-0.417614
2.23694
-1.18397
2.26623
-1.01337
-1.67048
-1.05741
1.04907
2.24528
1.44102
-0.232199
-5.22168
1.82988
6.27483
-3.04678
-1.94444
0.367047
1.67425
-3.73988
2.58656
-1.4525
0.392065
-1.52612
0.448719
0.932327
1.20552
1.59713
-2.24345
-1.60703
1.04261
1.01314
-1.46241
0.996227
1.4874
1.42608
-2.7986
-3.92991
2.58517
2.27707
-2.11177
4.84177
-0.426719
-9.5312
-10.343
24.1976
-4.32335
-15.2346
-18.1542
23.8576
5.89459
7.83417
-0.123861
-13.6049
-0.220454
-9.11955
6.48731
-8.99618
-12.8797
1.97952
25.3122
-14.412
-0.905807
12.2237
-6.43038
16.4967
-10.2867
8.46852
-15.0228
8.34222
-16.7168
7.46882
-6.23185
-7.28438
15.4958
-9.1267
11.2371
7.89467
5.68739
2.91461
-4.17682
-6.05272
7.46834
-16.8436
0.248525
8.07864
-12.5519
5.95557
-3.89149
-2.0973
0.0332254
-1.3301
8.44508
-1.15941
-1.10008
2.49933
-5.92582
4.52658
1.28442
-4.46447
2.07997
7.39598
-8.16368
-3.1238
8.56521
3.85972
-2.4897
-4.75595
3.38593
2.21833
2.92581
-0.961758
-1.13388
-3.83019
-3.47107
-1.95516
-6.27588
0.315105
10.2346
7.11067
-3.76149
-13.5838
-1.44037
5.43501
6.23997
3.09888
2.57142
6.96864
-0.863559
-3.0062
2.68391
5.2156
-11.661
-10.7865
2.55556
15.1996
-1.87559
0.102002
-9.01296
4.3367
-7.1009
5.44811
8.57801
3.26537
-6.62778
4.22524
9.78778
9.41674
-10.1163
-1.17607
16.1975
-2.5142
18.9969
15.0394
0.48112
-34.5174
-0.0491227
26.4591
-7.41308
-41.6827
10.255
16.0173
15.4104
2.41279
-14.7584
-29.3371
43.0463
-12.335
-28.2985
28.653
24.6483
43.0708
-40.3664
2.67643
28.7509
11.6434
-12.0225
16.5734
-4.59997
9.73655
-21.278
-28.4584
21.932
9.2028
14.162
-16.1613
18.3178
-23.3397
14.0387
43.3652
12.0874
11.6149
-5.38447
20.883
7.22173
-17.6001
9.03396
30.4981
-9.47066
6.03265
-13.1081
11.2721
22.7189
-3.8617
2.36856
3.24101
34.3448
4.95448
6.74688
-27.2685
15.5672
10.6349
26.8949
-32.5753
0.555278
19.7759
-13.5843
32.1281
-20.9379
37.0287
-16.088
5.9543
46.8014
2.96422
-22.1691
-27.5965
22.3049
17.9986
-20.5277
23.6014
32.192
-23.6653
46.2147
-0.308348
1.38294
30.2483
15.1702
-45.2927
15.3795
31.2961
-18.4282
18.2216
-45.086
33.7392
-12.7763
-3.36047
15.2549
20.2975
18.7672
24.087
12.6467
-4.97697
26.0694
10.9575
20.4564
-18.5825
32.2739
1.68817
19.1468
-0.546327
15.8192
-0.515571
16.7921
-3.69806
-12.5785
-4.87722
20.6596
-16.298
-2.49563
20.9197
-23.3013
12.9279
1.35754
-16.781
5.62503
13.7803
-2.61324
21.5484
4.7363
-5.39588
14.3433
3.98046
18.2891
-2.76533
13.076
-15.4165
-17.8063
-13.9455
10.2874
21.4644
2.64296
-19.7457
-0.703557
16.2953
4.0939
-1.5326
13.734
15.3084
0.943355
5.29661
16.4284
-23.0981
-1.521
4.00394
0.169487
14.2118
3.01361
10.7622
13.7017
5.53077
9.56626
3.25603
-7.02939
10.2125
16.2386
-5.25635
8.25304
-8.32005
5.32336
-0.114961
-3.8171
-1.32429
-10.1173
8.89593
-7.72551
8.94693
-3.18188
-12.5191
5.58363
-6.3828
10.7026
4.57616
-4.94796
-1.5498
-6.49853
2.14441
-8.05651
12.4106
4.93111
-0.727065
-2.43157
9.50709
-6.8509
12.6724
-12.7435
5.48656
-1.06312
-9.61761
-6.94299
-9.47274
1.3429
7.04663
-0.571561
-1.07018
-5.40488
17.5661
-18.576
-5.91966
4.55532
-0.517158
-5.97406
8.46308
-6.7531
-7.53418
5.82421
3.75064
1.78479
2.92764
-8.96986
-10.7403
6.86263
12.8475
1.90149
4.40043
-13.055
7.59449
-14.6629
-9.68486
6.3593
-6.63443
9.95999
5.63347
-7.72384
-7.70144
3.11248
1.98864
2.60032
9.08166
-12.3827
7.08944
5.01793
-3.02572
4.95782
5.2441
1.89022
5.73188
-9.0215
10.2811
3.69823
-0.252928
-5.2041
-3.09526
16.3776
-8.07824
-26.5392
1.07401
14.058
11.4071
-1.64981
-26.2993
1.40989
-16.0456
-2.55283
13.3943
7.96999
-0.874227
-23.1413
-20.5745
9.93482
11.7136
0.131281
-22.3555
-5.41602
12.2556
-17.929
9.96015
-19.2399
1.4422
18.4809
2.22365
0.79249
-21.497
7.80298
11.9649
-1.28707
-6.90529
-4.74509
6.20562
5.44476
-13.8385
-8.4985
15.4317
-13.0803
13.6547
7.22856
1.95867
-12.8153
-13.4783
11.6048
2.08459
-14.7704
-4.71975
18.7463
-0.371842
-3.58744
-18.2279
17.0702
-24.5488
3.00445
17.9569
-2.03866
-26.1715
3.66141
-20.9679
0.701324
-16.773
15.0577
3.2975
-22.1808
0.263442
-23.1375
-14.5509
-17.3973
4.10051
13.847
-0.55018
-8.28242
5.34163
-14.4565
-1.53731
6.56687
4.89219
-9.92175
12.3635
5.92795
-19.8288
1.23034
11.0383
0.094861
7.17972
0.617486
18.715
9.12581
-15.4785
-12.3623
11.9416
7.82016
-1.04673
-16.7545
10.8525
17.8436
-5.39795
-2.23073
9.2695
-12.6597
11.144
2.22603
6.78217
-3.93105
2.49052
16.1858
4.44335
-14.9069
5.35632
-10.502
4.23967
17.1148
-4.86166
13.479
4.84466
9.1887
16.2712
-9.27403
26.9074
5.12414
10.1007
0.63583
-15.8607
10.3108
-11.7417
6.55502
-4.70892
1.15505
13.8646
-2.81385
8.20565
3.49546
-0.36243
-14.8747
-8.70299
-3.37712
13.2352
8.43466
-4.07734
2.64813
-7.00545
5.64977
8.00985
-4.32597
-9.33364
11.4814
2.77851
-8.61016
0.72654
12.101
-4.81774
13.2004
-4.03923
-7.59401
2.38647
2.59627
6.0713
-10.4904
9.70954
-6.67223
8.28288
-1.06581
5.9248
0.424836
-4.47572
-1.87391
1.05761
2.98292
1.88427
-3.46415
2.2195
2.30226
-0.850614
-2.1887
4.15097
6.77697
-7.94501
-1.99938
7.41188
-3.193
-3.48924
8.91398
-2.67575
-2.749
1.91274
-4.95291
-0.449072
3.0175
-1.46895
-2.39916
-4.98076
5.99888
2.98174
2.28029
3.65195
-6.13078
4.13176
-5.68699
-6.98313
-4.89722
4.73932
7.14103
-9.14099
1.00117
1.15669
-2.30652
-3.05567
0.464964
6.85599
-8.51446
-0.648045
5.75842
-8.67572
9.7733
-6.59802
17.0958
-4.51155
-7.68511
7.23437
-8.88296
2.64976
-5.49191
6.12826
-8.31038
-0.100072
-0.104006
-4.0791
-10.0885
-9.1258
0.106102
0.136745
13.4236
-0.381897
-11.3381
-1.70363
16.466
15.6852
-19.8326
-12.3186
4.02852
10.8919
1.54555
12.092
5.36012
14.3919
2.99867
-1.70538
13.06
12.2238
23.9441
-12.1813
-3.62873
-8.13412
0.482605
-1.87805
25.3396
-15.0525
-0.645085
16.1802
-15.1417
22.6414
-14.7089
-11.5612
-1.08649
21.8498
23.1863
-17.0093
-6.4883
0.311325
0.606529
21.4933
10.8198
-13.4802
-14.3489
15.5431
-1.72466
-1.05969
13.4746
-6.46467
-14.7325
15.09
12.8037
-0.328715
3.05258
-15.5276
1.67847
13.9036
-2.77832
21.4219
16.8377
-23.0472
-15.2124
-2.75002
10.507
13.6649
5.35675
8.73092
11.5408
2.5317
-14.4012
-1.87001
15.0893
12.0105
12.4001
3.27642
-23.2711
-19.3085
7.13501
11.3386
0.834896
-12.7898
-0.761985
-5.75668
1.32043
17.0344
-6.3443
15.131
-0.0303317
-11.8242
10.1678
10.32
3.01516
-13.2733
-18.8868
4.96118
21.0606
-13.0309
-6.61785
16.4494
-10.0461
-0.492826
0.916593
-1.07561
0.651844
0.85186
-1.9351
0.590415
1.31587
-1.41064
0.946634
0.222921
2.00954
-1.24303
-0.106135
0.273557
-1.71019
-1.46794
0.643195
0.676886
-1.42622
0.727726
2.10944
-2.19397
-1.59576
2.5464
-0.69555
-0.288452
-0.849881
1.83388
1.82571
-0.840104
-1.68116
0.950449
-0.571714
1.44698
0.869423
-1.32296
-0.9571
0.224116
0.724333
-2.8874
-1.27431
-10.3408
14.5809
-15.4363
11.1962
7.71367
-0.145053
-17.9094
0.980034
-3.20265
9.93628
-4.48357
20.0445
-24.6742
-1.04802
5.30806
20.4142
-13.6035
-1.51054
-9.56024
1.61473
-5.28865
-11.7624
-3.22275
-15.6006
14.3398
-18.4317
14.1609
-11.9883
-20.0468
18.1034
-11.1582
-8.45569
20.2088
-9.95905
-4.02683
-8.29845
-0.77678
-2.08298
2.98749
-17.029
5.74307
-18.9599
4.34942
7.3263
-11.6757
8.79045
-7.92792
3.48689
1.68061
-2.6711
8.31679
-1.18097
11.652
1.82772
-13.5034
-7.08865
0.988451
1.17389
-17.8749
1.83986
14.8611
-15.5355
2.92122
13.7882
-21.957
19.5488
1.84119
0.566986
-2.21142
0.216291
-19.9619
-3.28178
4.95569
-19.1923
0.374967
-10.5652
12.3055
-0.722303
1.17764
-7.54399
1.52694
-15.7527
-14.3666
13.5353
14.1268
-14.8112
1.60138
-1.16505
-17.811
-10.5526
1.12448
7.22173
1.49201
-9.83821
2.41751
0.206965
-13.5109
10.8864
16.7059
9.35161
-18.9653
-7.0923
-9.47289
14.71
11.4688
-6.86426
8.92102
-2.70652
0.649761
-9.08344
2.51511
-0.295925
15.1438
2.74229
-15.4686
-6.48676
12.5471
0.745998
-4.49047
-9.89213
10.3339
-2.8711
2.42936
2.4303
-12.1155
-3.2643
8.3919
4.22402
1.51088
-18.0459
-7.21601
8.19405
-9.79176
1.10244
-3.68447
12.3738
-7.99713
-24.4716
22.677
2.32146
21.3872
-13.3852
-10.3235
-12.1962
2.32589
3.79998
6.07036
-12.842
-15.5714
16.2172
-21.9357
1.09653
-6.94504
10.3331
16.0754
-19.4635
-3.45079
-2.39181
-7.34584
-8.8251
18.4924
-8.77352
-10.3151
11.7428
-7.21329
0.765658
0.63268
0.875287
-11.9598
2.27737
-8.528
-10.6451
-7.47093
6.28093
-7.68154
8.87154
-10.9394
6.4801
-3.01165
0.20357
-10.9717
12.4135
-1.64538
-9.70037
-1.03544
-6.19123
-3.65965
16.1318
-6.25934
6.5482
0.247363
-16.1866
9.67994
-22.1789
8.64688
13.7794
-0.913509
6.96516
-15.752
7.45543
-19.3406
3.84888
-13.0704
-6.77716
-11.5529
-0.296288
5.02826
-10.5663
15.5535
17.4508
-16.7725
6.58822
47.9047
-29.2754
-1.74392
-16.8854
1.35424
21.7013
24.8492
-33.8266
-2.78621
23.9949
12.6179
-19.971
-43.131
-25.7383
12.9356
14.157
-17.3653
-10.1169
-27.1149
14.1785
10.1502
-12.2322
9.00665
-23.8893
0.57048
-32.7737
8.70014
36.9961
10.2296
-14.8106
17.5166
-32.8592
29.3201
17.7175
-5.61298
-18.2395
16.3961
9.93458
-25.7602
25.9866
-7.05681
14.1819
-15.1511
-2.67069
2.04192
19.1716
-14.85
2.05008
14.4508
-6.79376
3.13878
-15.0087
18.6637
16.0337
-18.2327
-1.44093
4.82669
-7.00573
18.2127
-11.7056
-0.400971
-10.6887
22.7953
-1.80799
-16.6914
-2.74728
22.5812
-5.51904
0.828078
-13.5417
-10.3466
19.4831
-9.53742
3.13516
-15.2898
-19.6245
17.2406
2.6959
4.00275
15.8156
-22.5142
7.69396
24.9633
-29.9614
13.3854
-9.41858
10.3825
17.2692
3.52466
-1.31075
22.2158
7.85805
6.7442
-26.4154
11.2581
-16.5415
-6.12959
9.19731
8.4057
1.44158
18.7755
-8.95898
10.4375
9.7841
-13.4774
-6.47105
18.3501
8.71162
3.93427
11.6618
7.05111
-10.0013
-0.897288
9.68621
1.94131
2.2322
-15.221
11.0475
15.2965
-6.65249
6.92342
-15.5674
-4.50419
-0.986793
20.7875
-12.7909
3.50086
-2.0995
11.3895
4.11764
-14.9672
-4.41423
14.933
-15.023
-9.93124
-3.82754
12.772
-16.603
0.0193132
21.3723
-0.927182
-9.98247
-10.4626
2.14918
2.20156
17.0215
17.7075
-9.24403
-9.39061
4.48447
15.3722
12.9355
4.01407
-12.832
-0.166655
-0.460917
-12.7104
17.1854
-4.20463
-12.2367
15.9804
19.4015
-11.7296
-17.6544
17.1889
13.8984
-13.2414
-13.7021
14.1732
10.0781
-19.8477
-4.40361
-7.24807
12.1671
9.25419
6.37864
-3.54861
-15.6794
4.07684
12.2936
-0.69105
-17.4582
-11.955
13.7339
2.26029
-14.587
18.7053
-4.45994
-11.7204
18.4406
3.69775
12.5462
14.2949
-13.1501
-5.60477
19.8739
-9.93347
4.35449
4.42646
20.9901
-5.54268
22.953
-14.8288
-10.0512
-2.22971
-4.38038
16.6613
-15.5609
14.9801
-9.47043
9.89242
-6.96782
-2.9246
3.48094
-0.75859
13.8906
-16.613
0.100214
13.2731
9.24971
-4.71576
-6.76365
1.52297
6.64895
-2.3695
-5.80243
9.05383
-7.53085
2.086
2.42528
-13.0339
9.85006
-6.76859
9.29409
-8.51287
-17.7734
19.5176
-6.42686
-18.6177
-15.605
16.4493
-15.5655
-9.47903
-5.40304
-3.37481
-6.82714
-14.3196
-7.15903
1.7503
11.7805
1.53142
-15.0622
-17.8414
15.564
4.02772
0.474713
-0.627538
-17.6886
-1.50765
-0.199785
17.2714
-1.47959
11.7524
6.26626
-23.0621
18.7881
-1.99226
14.0895
-12.8287
5.00547
16.7642
-3.06097
-17.5785
3.87526
17.6612
-0.897068
-18.1359
-2.11993
20.0561
-0.869078
13.479
5.87403
-1.56342
-27.3727
-9.45339
2.49875
19.966
-1.53695
0.358999
1.25439
17.8425
16.2779
-20.9023
-1.33465
16.7155
17.3785
-18.244
-20.916
-19.074
27.7819
12.2082
-5.74493
-31.0289
15.8577
9.63317
-2.95875
-25.7484
6.19889
34.9135
-13.3305
-29.7359
-10.5635
17.9011
22.3983
20.7075
-34.4966
5.43738
8.35167
-5.90616
32.8126
-30.725
-5.03099
6.02013
-25.842
0.978543
0.506267
-21.4012
-4.94704
35.575
-29.0799
-5.98881
24.7549
16.2574
-13.2401
32.0889
26.4545
-37.671
-2.02366
5.40967
-22.996
-3.81487
-24.8465
1.17629
1.87992
-2.41903
-2.20767
2.74679
-0.731188
0.991538
1.61957
-0.0833532
0.182563
-2.51824
2.91026
0.0557852
-3.0494
1.62879
-1.4923
-0.521583
0.385095
-1.04427
1.97548
0.697579
1.13481
-0.614936
-0.821583
-1.59562
6.63259
0.549839
-21.1055
13.9231
-5.63636
5.5333
6.73566
10.882
-0.720428
4.20228
-14.3639
14.1876
6.9547
-20.5925
-12.6564
12.7734
17.1215
-17.2385
-1.5047
-11.1517
-12.0572
9.86972
13.0695
-13.5619
9.9779
3.48932
13.6941
-8.88089
2.1415
-4.54174
27.1849
19.1302
0.886722
-2.90157
-14.5981
16.6129
-1.95018
-12.8441
15.681
2.62887
1.47545
-18.4758
14.3715
-15.3252
16.0039
-15.3732
13.947
6.44793
-12.4609
-8.58513
-6.3962
-4.29071
-16.6996
5.66511
8.18053
-4.1275
2.35041
-6.40344
-18.8501
11.6575
-2.29457
-20.683
-10.6869
-1.50284
-14.6226
-2.89933
-15.3031
1.37878
-16.1342
-12.2075
13.1146
-13.61
5.35322
-4.85778
-6.92007
7.19082
12.8438
8.45392
-2.51039
-19.5535
1.53385
9.39865
4.16996
-8.2154
19.3863
-2.79679
-7.66655
9.2004
-11.5542
1.55304
11.974
-1.97283
-5.38636
-13.8344
-17.2215
9.32473
10.2919
-14.5805
-14.7609
19.0495
-0.303881
10.5958
-0.601805
10.8616
1.55657
-11.8163
2.13919
-17.3215
9.45656
9.3602
-7.95518
9.15268
-0.809112
11.7233
-9.35759
15.4804
-14.1503
0.340921
13.4612
-14.178
0.375934
4.28208
-7.00188
18.2002
-0.732962
-13.0426
12.8891
0.886526
8.41971
-3.69212
0.00970682
16.9869
-12.6441
-0.0606522
-0.214078
17.8062
-0.605265
0.625923
8.13471
13.3009
-4.61298
-18.975
17.9157
-14.8941
15.9534
-11.8239
-2.95336
-4.1977
5.02471
-1.70049
14.5915
-26.7787
1.79218
10.0924
-22.826
-15.7766
-11.8059
18.2826
-1.45198
18.5106
-14.7387
-6.7252
12.1248
4.68528
-19.9363
9.9226
31.4488
-8.39018
-33.1818
10.1232
27.2704
-15.7579
19.2334
4.46157
-7.21717
-16.4778
12.8066
5.25722
1.16958
2.0245
-33.2406
-13.7597
14.061
12.5053
-7.16588
-2.13225
16.0009
-21.1936
6.5194
12.3732
11.0339
-11.8621
-11.545
-6.0177
14.4774
3.91347
-21.4547
4.07718
14.5814
2.79618
-9.87349
-0.547363
18.7394
-12.6142
1.81584
-7.94099
23.7271
-7.0906
2.10289
11.4845
0.154429
-23.501
8.30672
-2.83995
13.6737
4.88096
11.2571
-22.5616
11.459
6.89283
-8.24997
-17.6238
-16.8307
21.1198
13.3347
1.44485
-10.762
-8.49301
0.0636977
35.1567
-22.2477
-12.9727
32.493
-11.9302
-20.4991
5.2221
15.7268
14.2078
18.1275
19.5877
-21.5113
-6.3887
5.65229
11.1976
13.0098
-8.48059
-11.0195
2.27239
12.7312
-3.98414
-11.5208
-1.87986
2.38118
16.6736
-4.68898
-12.889
0.904384
11.3745
-6.22171
-15.7539
17.2423
6.10495
-7.59338
6.75978
-20.6395
-1.8742
-1.95368
15.4237