/*--------------------------------*- C++ -*----------------------------------*\
  =========                 |
  \\      /  F ield         | OpenFOAM: The Open Source CFD Toolbox
   \\    /   O peration     | Website:  https://openfoam.org
    \\  /    A nd           | Version:  10
     \\/     M anipulation  |
\*---------------------------------------------------------------------------*/
FoamFile
{
    format      ascii;
    class       volVectorField;
    location    "17";
    object      U;
}
// * * * * * * * * * * * * * * * * * * * * * * * * * * * * * * * * * * * * * //

dimensions      [0 1 -1 0 0 0 0];

internalField   nonuniform List<vector> 
75457
(
(5.10601 0.387349 -0.799272)
(5.24448 -0.452879 -1.07008)
(7.2485 0.55831 -0.636755)
(9.39364 0.155198 -1.02406)
(4.0586 1.68786 -0.00680801)
(4.20053 1.86543 -0.174157)
(5.53073 0.100747 -0.58729)
(5.26079 1.08898 -1.03111)
(10.3504 -0.137101 -1.20683)
(10.1641 0.0951078 -1.00673)
(10.362 0.270789 -0.96644)
(4.43238 1.17127 0.148655)
(4.51342 0.949646 -0.29628)
(9.12328 0.4036 -0.467805)
(12.0348 -0.332533 -0.0681341)
(12.1237 -0.33305 -0.0555826)
(12.4739 -0.404892 -0.226054)
(12.2525 -0.424321 -0.275879)
(12.2027 -0.368133 -0.0837759)
(12.4887 -0.350265 -0.159866)
(12.3044 -0.399975 -0.238646)
(12.3794 -0.396692 -0.103805)
(12.0919 -0.358162 -0.0731066)
(12.0849 -0.365229 -0.10807)
(12.3543 -0.420043 -0.0903065)
(11.8454 -0.400654 -0.248982)
(11.8034 -0.427982 -0.273275)
(11.3736 -0.790099 0.262151)
(11.204 -0.818759 0.38883)
(11.3269 -0.777955 0.238672)
(11.4847 -0.708917 0.219374)
(11.1295 -0.779239 0.3265)
(11.1371 -0.764277 0.341669)
(11.7496 -0.590194 0.260572)
(11.7265 -0.568988 0.225431)
(11.8981 -0.583353 0.444601)
(11.8149 -0.632527 0.29642)
(11.0854 -0.811729 0.400171)
(11.2079 -0.781668 0.39621)
(11.7828 -0.523416 0.269297)
(11.8111 -0.530565 0.293452)
(11.7896 -0.552893 0.297469)
(11.8641 -0.634932 0.443326)
(12.7744 0.763224 0.630105)
(12.509 0.792566 0.573313)
(12.9696 0.737606 0.600702)
(12.984 0.715488 0.626413)
(12.7365 0.781109 0.627746)
(12.5141 0.375906 0.132062)
(12.7319 0.536392 0.223301)
(12.7324 0.548679 0.203862)
(12.581 0.396781 0.179669)
(12.2956 0.434652 0.0448803)
(12.6626 0.529115 0.2001)
(12.7924 0.490277 0.268538)
(12.7923 0.493166 0.236074)
(12.3811 0.543594 0.135152)
(12.4 0.540413 0.115126)
(12.4722 0.372659 0.0857696)
(12.2545 0.417661 0.0322376)
(12.3382 0.488408 0.0900372)
(12.5562 0.395035 0.136088)
(9.93397 0.0567674 -0.296482)
(9.94141 0.0670596 -0.321022)
(10.1269 0.0900419 -0.251868)
(9.92618 0.0622507 -0.29043)
(9.94933 0.0568465 -0.271684)
(9.89802 0.0357962 -0.267918)
(9.91676 0.0421522 -0.207162)
(9.80918 0.0284356 -0.229634)
(9.82584 0.00928197 -0.227322)
(9.7709 0.00268301 -0.239336)
(9.94837 0.0494927 -0.215425)
(10.1215 0.0913491 -0.251793)
(9.92858 0.0490744 -0.194398)
(10.1006 0.0817634 -0.221155)
(10.0904 0.073443 -0.209517)
(0.82995 0.977418 0.674182)
(-0.941864 1.33411 -0.401632)
(-0.886414 1.16478 -0.36828)
(1.91083 1.19775 0.831609)
(-0.814867 1.70432 -0.0849617)
(0.676509 0.728125 0.354924)
(-0.326919 0.654146 0.00240304)
(-0.599798 1.33837 -0.316551)
(-0.871521 1.51439 -0.556854)
(-0.41238 1.21235 -0.560402)
(-0.149045 1.03723 -0.683586)
(1.68088 0.854878 0.0908422)
(2.05441 1.16645 0.442919)
(0.283854 0.666944 -0.0525853)
(-0.29279 0.630539 -0.239772)
(0.767325 1.30304 0.732224)
(-0.516801 0.996234 0.115294)
(12.558 -0.272668 -0.0151573)
(12.9389 -0.278551 -0.0167415)
(12.9389 -0.281747 -0.0162768)
(12.958 -0.282453 -0.0113215)
(12.3397 -0.270806 -0.0168757)
(12.5926 -0.269174 -0.0165185)
(12.5896 -0.281435 0.00725736)
(12.4504 -0.261091 -0.0152767)
(10.0176 -0.0098918 -0.0195255)
(10.0279 -0.00914919 -0.0163774)
(10.021 -0.0148796 -0.0219661)
(10.0213 -0.0193967 -0.0154224)
(10.0124 -0.0174024 -0.00658349)
(10.024 -0.0172848 -0.00569997)
(9.85563 0.000706932 -0.0203629)
(9.93379 -0.0144044 -0.0148879)
(9.94531 -0.018153 -0.0109171)
(9.90243 -0.0188221 -0.00160363)
(9.87132 -0.0258094 -0.022962)
(10.7559 0.115257 0.0670406)
(10.7924 0.138657 0.187182)
(10.3904 0.097477 0.112723)
(10.3797 0.0321451 0.0382449)
(10.7706 0.0870511 0.204717)
(10.6441 0.151521 0.116016)
(10.5446 0.201764 -0.0211708)
(10.8581 0.106894 0.268011)
(10.8506 0.131593 0.276936)
(10.7474 0.12949 0.270661)
(10.551 0.153677 0.127298)
(10.4527 0.126313 0.0896628)
(10.4974 0.123451 0.141799)
(10.5504 0.166234 0.0561807)
(10.4956 0.093513 0.150473)
(10.5349 0.057994 0.082367)
(10.6353 0.117338 0.228733)
(10.7296 0.115941 0.246022)
(11.3226 0.00568261 0.377699)
(11.395 0.0790312 0.328111)
(11.3972 0.0554743 0.359181)
(11.3247 0.0333195 0.322648)
(11.321 0.0190416 0.314342)
(11.3108 0.0793502 0.331814)
(11.242 0.0377604 0.310702)
(11.2483 0.0275605 0.357292)
(11.1973 -0.00792424 0.329361)
(11.9521 0.0350691 0.189747)
(11.9591 0.0208703 0.210637)
(11.85 0.0140296 0.24471)
(11.9632 0.0302058 0.15928)
(11.9966 0.0186825 0.179751)
(11.6939 0.0251971 0.122723)
(11.8672 0.00454172 0.252994)
(11.9011 -0.0059307 0.216607)
(12.849 0.0419605 0.00987691)
(12.9418 0.0578759 0.0432164)
(12.7098 0.0224907 -0.0539618)
(12.7308 0.0921883 0.02449)
(13.1453 0.0487278 0.143764)
(13.0886 0.0919984 0.188336)
(12.9079 0.0557084 0.0852091)
(12.7401 0.0879481 0.0220876)
(12.7083 0.0751587 0.0700277)
(12.6481 0.0739745 -0.000342498)
(13.0661 0.0839361 0.175272)
(12.7339 0.0912468 0.0340532)
(12.7497 0.0361647 -0.00456811)
(13.0478 0.0833664 0.216845)
(12.6656 0.0811832 0.0683827)
(11.5366 1.08517 0.906796)
(11.2915 1.24353 0.896383)
(11.2027 1.30774 0.857197)
(11.393 1.21753 0.809692)
(11.2587 1.11149 0.769438)
(11.7334 0.94776 0.874675)
(11.5723 0.758886 0.567595)
(11.4481 0.884122 0.695075)
(11.5762 1.27482 1.03597)
(11.4585 0.95985 0.672561)
(11.5632 1.07573 0.710482)
(11.8277 1.14703 0.913792)
(11.6546 0.935791 0.616131)
(12.9863 -0.070393 -0.0701146)
(13.1097 -0.0305696 -0.0863772)
(13.0046 -0.00654876 -0.0373287)
(12.8257 -0.0352453 -0.0117396)
(12.8543 -0.0143384 0.000535096)
(12.7178 -0.021139 -0.04002)
(12.9562 -0.0708402 -0.0368379)
(12.8967 -0.0815151 -0.0133136)
(12.7563 -0.0889692 -0.000294436)
(13.1026 -0.0360363 -0.0996064)
(12.8441 -0.0381965 -0.029846)
(12.9876 -0.063312 -0.0558914)
(12.742 -0.034172 -0.0149246)
(12.6977 -0.0269401 0.00120111)
(9.96174 -0.0933402 -0.74729)
(9.39354 -0.264726 -0.913932)
(9.23076 -0.0863015 -1.01308)
(8.54083 -0.139404 -0.824363)
(7.96119 -0.233454 -0.907179)
(8.37644 -0.109381 -0.889092)
(11.6849 0.427139 -0.644513)
(11.5297 0.274862 -0.487946)
(11.6081 0.253596 -0.46246)
(11.7043 0.316415 -0.494644)
(11.8184 0.338788 -0.502097)
(11.4573 0.228786 -0.211139)
(11.3055 0.355661 -0.143961)
(11.3543 0.349179 -0.115549)
(11.4853 0.389588 -0.24247)
(11.7328 0.39503 -0.252744)
(11.5759 0.322057 -0.0639176)
(11.8971 -0.00212799 -0.0972345)
(11.9467 -0.0154766 -0.0403838)
(11.9914 -0.0229212 -0.0363596)
(12.2109 -0.0472196 -0.061707)
(12.1312 0.000311483 -0.114218)
(11.8052 -0.0122611 -0.0582076)
(11.8112 0.0454187 -0.0830535)
(12.1205 0.00149566 -0.128388)
(12.0092 -0.00281085 -0.0808141)
(11.8843 -0.0317933 -0.0243933)
(12.1139 0.00389046 -0.125512)
(11.7755 0.0148261 -0.090403)
(11.7384 0.00443128 -0.0161979)
(11.7544 -0.00191785 -0.0417375)
(11.7754 0.443423 -0.0282897)
(11.8456 0.461989 0.0122775)
(11.6785 0.441316 -0.0234299)
(12.0188 0.414756 -0.000367906)
(11.8793 0.402449 0.0406551)
(11.7784 0.489974 -0.0307129)
(11.8551 0.491593 -0.0074254)
(11.8152 0.527731 -0.0521841)
(11.7165 0.517885 -0.0244226)
(12.1127 0.480718 -0.0763089)
(12.1492 0.459167 -0.0659554)
(11.895 0.492071 -0.017368)
(11.8734 0.493275 -0.0361509)
(11.9343 0.488801 -0.00248212)
(12.2379 0.00459197 -0.266338)
(12.0193 -0.000747443 -0.290964)
(12.4184 -0.0516671 -0.267501)
(12.369 -0.0359882 -0.212618)
(12.3851 -0.0506711 -0.212194)
(12.4408 -0.0556276 -0.278837)
(12.1584 -0.00656899 -0.217423)
(12.022 0.0227674 -0.255183)
(12.0226 -0.00365121 -0.272449)
(11.981 -0.00951376 -0.261765)
(12.1441 -0.0237818 -0.28448)
(12.1299 -0.0137989 -0.202143)
(12.1371 -0.00827916 -0.19139)
(11.9941 0.00121603 -0.277095)
(11.9467 -0.00716666 -0.261399)
(12.0671 -0.00231774 -0.199684)
(12.0259 0.0178418 -0.255214)
(10.5981 -0.0706067 0.147119)
(10.3494 0.0228545 0.060651)
(10.4519 0.0310817 0.068003)
(10.4313 0.0469106 0.0771772)
(10.6825 -0.116652 0.144641)
(10.8344 -0.145278 0.122897)
(10.7566 -0.221718 0.279271)
(11.9037 -0.172016 0.295615)
(11.9699 -0.260067 0.292277)
(11.9174 -0.22848 0.29256)
(10.6664 -0.0714374 0.172138)
(10.6718 -0.167321 0.187823)
(12.2333 0.332767 -0.247617)
(11.5652 0.219924 -0.00147923)
(11.7532 0.16027 -0.38876)
(11.6462 -0.00334551 -0.227422)
(11.6246 0.196582 0.00367827)
(11.8099 -0.028089 -0.244735)
(11.735 0.00385305 -0.24375)
(11.745 0.192274 -0.0439444)
(11.9291 0.291177 -0.543485)
(11.8033 0.278707 -0.503053)
(12.1599 0.354377 -0.276031)
(11.8278 0.282333 -0.478093)
(12.1562 0.334885 -0.256678)
(12.3451 0.0499987 0.143587)
(12.2735 0.0140462 0.156678)
(12.473 0.0755099 0.173438)
(12.3935 0.00659158 0.198423)
(12.3655 -0.00667291 0.203991)
(12.288 0.0425426 0.128494)
(12.2955 0.00999039 0.14614)
(12.3704 0.0308461 0.168212)
(12.3449 0.0116163 0.178566)
(12.3737 0.0705457 0.137445)
(12.7259 0.150224 0.176125)
(12.6577 0.130007 0.169045)
(12.382 0.0573113 0.138051)
(12.5935 0.123143 0.140859)
(12.5694 0.117373 0.135983)
(8.97673 0.203217 0.00107149)
(8.92229 0.16387 0.0257439)
(8.65875 0.0119019 -0.0674157)
(8.67793 0.00894409 -0.0619578)
(8.84534 0.159498 -0.0353662)
(8.98674 0.164274 -0.0155822)
(9.00776 0.192467 -0.0217731)
(8.80038 0.0618588 -0.0226504)
(8.86577 0.0878491 -0.0114304)
(2.54798 -0.0378434 -0.301375)
(2.46209 -0.0108113 -0.268043)
(2.71269 -0.0664973 -0.43728)
(2.79007 -0.0695205 -0.430645)
(2.55082 -0.0525845 -0.395445)
(2.42979 -0.0240639 -0.338399)
(2.51659 -0.0642028 -0.414929)
(2.58711 -0.10786 -0.480198)
(2.50091 -0.0511159 -0.306624)
(2.67081 -0.0991878 -0.420935)
(2.79359 -0.112468 -0.459866)
(2.73065 -0.101425 -0.349997)
(2.85266 -0.127538 -0.412247)
(1.10989 0.0709228 -0.111098)
(-0.552306 -0.106582 0.0123701)
(-0.514271 -0.182178 -0.630415)
(0.00229732 -0.085953 -0.536271)
(0.16584 -0.134656 -0.487691)
(0.13621 -0.163053 -0.118731)
(0.163939 -0.229286 -0.273444)
(-0.969992 -0.061168 -0.653908)
(-1.14104 0.0111027 -0.432075)
(-1.29765 -0.0445939 -0.309702)
(-1.15482 -0.0329432 -0.395232)
(12.6574 0.182078 0.15394)
(12.7617 0.230929 0.16615)
(12.7654 0.241794 0.154979)
(12.488 0.290217 0.0705433)
(12.4208 0.279089 0.0548072)
(12.4832 0.201214 0.0870015)
(12.494 0.253787 0.0759521)
(12.4157 0.259685 0.0583487)
(12.3449 0.249961 0.0585001)
(12.6311 0.163438 0.143973)
(12.669 0.18692 0.129614)
(12.2056 0.118106 0.0468525)
(12.1947 0.112062 0.0737893)
(12.2376 0.184435 0.019176)
(12.3762 0.191508 0.0852226)
(12.168 0.109393 0.0566829)
(12.1511 0.110241 0.0333639)
(-1.32131 -0.148963 -0.860849)
(-1.03702 -0.649613 -0.447221)
(-1.21003 -0.261031 -0.617227)
(-0.981074 -1.18386 -0.15338)
(-2.31678 -0.012215 -0.0902695)
(-1.92963 -0.135064 -0.139163)
(-2.31719 0.144361 -0.369337)
(-0.712102 -0.917785 0.0627267)
(-1.45463 -0.33675 -0.366192)
(-1.37992 -0.723364 -0.102603)
(-1.4344 -0.675111 -0.0292935)
(10.6552 0.392168 0.0327581)
(10.8212 0.402136 0.00371589)
(10.6006 0.268921 -0.00826918)
(10.1232 0.0845234 -0.00629373)
(10.4071 0.289946 -0.013616)
(9.63666 0.163663 -0.104087)
(9.61099 0.146249 -0.0980629)
(10.0445 0.0827658 -0.00558416)
(10.4736 0.234116 0.0531839)
(9.88516 0.00842222 0.00656009)
(10.4382 0.236257 0.0421709)
(11.8163 0.289766 0.172912)
(11.8268 0.280298 0.139097)
(11.8192 0.307788 0.178948)
(11.8386 0.278048 0.131001)
(11.6416 0.268546 0.0819538)
(11.689 0.286739 0.123058)
(11.4248 0.359064 0.0562829)
(11.5021 0.356928 0.0847486)
(11.6567 0.345305 0.122792)
(11.5452 0.341107 0.0834568)
(11.3629 0.333035 0.00261319)
(11.4169 0.343783 0.024674)
(11.538 0.26182 0.0588771)
(11.6044 0.28146 0.076978)
(11.4951 0.293458 0.0561874)
(3.01507 -0.189424 -0.380635)
(1.88959 -0.138771 -0.6325)
(1.63578 -0.104951 -0.967297)
(1.0772 -0.0278683 -1.02156)
(1.03823 0.00527368 -0.944164)
(12.389 -0.0367089 0.634475)
(12.483 -0.057636 0.630198)
(12.6233 -0.0743409 0.683996)
(12.5538 -0.0661179 0.681416)
(12.8706 -0.113018 0.681896)
(12.8496 -0.123197 0.695453)
(12.6641 -0.0742431 0.663534)
(7.92436 2.54616 0.024718)
(7.48013 2.71347 -0.490506)
(8.85777 2.3162 -0.247976)
(8.71187 2.59179 -0.405516)
(7.96233 3.00461 -0.0466544)
(7.43101 3.0434 -0.582621)
(8.06748 2.28441 0.0461993)
(7.55919 2.39087 -0.579187)
(8.18699 3.05946 -1.23581)
(7.33071 3.10826 -1.30215)
(8.26888 2.17094 -0.054409)
(7.94395 2.17855 -0.646759)
(8.27033 2.73008 -1.14767)
(7.73794 2.68934 -0.973386)
(8.93364 2.22678 -0.253843)
(8.43584 2.48283 -1.08252)
(7.87814 2.44074 -0.912817)
(8.94807 2.27669 -0.454606)
(9.61764 2.10343 -0.29654)
(9.77265 1.94317 -0.372525)
(9.58313 1.99255 -0.597214)
(9.51051 2.08511 -0.687386)
(9.52347 1.80269 -0.589906)
(9.44466 2.11277 -0.679769)
(9.56603 1.94056 -0.16913)
(9.49673 2.11381 -0.219523)
(9.41916 2.23145 -0.554417)
(8.99376 2.05454 -0.499022)
(9.30645 1.73326 -0.418653)
(9.28915 1.90577 -0.213693)
(9.00613 2.24654 -0.169459)
(10.1971 3.22871 -0.924452)
(10.5481 2.79281 -0.855908)
(10.9708 2.12146 -0.322948)
(10.8854 2.01584 -0.326411)
(10.3431 2.50787 -0.835185)
(10.5675 2.50026 -0.75295)
(10.7028 2.23144 -0.474563)
(10.6795 2.15594 -0.481553)
(10.4504 3.2254 -0.771579)
(10.7826 2.95443 -0.631851)
(9.9539 2.86098 -0.859766)
(10.0288 2.95592 -0.842788)
(10.7437 2.64918 -0.253467)
(10.6565 2.44866 -0.230796)
(10.9626 2.38089 -0.312554)
(10.402 2.19245 -0.553222)
(10.0897 2.6545 -0.502663)
(10.1599 2.78353 -0.53215)
(10.4671 2.74675 -0.284805)
(10.457 2.60645 -0.311461)
(10.3888 2.87901 -0.452609)
(10.3085 2.54039 -0.380489)
(13.1975 -0.0655118 0.375376)
(12.9823 -0.0811041 0.349005)
(13.0587 -0.123225 0.364987)
(12.9819 -0.0776331 0.357458)
(13.0652 -0.121675 0.371521)
(13.2393 -0.0539848 0.391199)
(13.103 -0.0520733 0.380266)
(13.2788 -0.095024 0.366383)
(13.063 -0.0763998 0.352497)
(13.2049 -0.0531881 0.379617)
(13.2039 -0.13355 0.363685)
(13.1013 -0.0641484 0.371015)
(13.2686 -0.11405 0.362822)
(13.1208 -0.0694 0.36332)
(13.2843 -0.123204 0.361303)
(13.2453 -0.0714636 0.374218)
(4.64153 0.112673 -0.368877)
(-1.67979 -0.12638 -0.310366)
(2.5472 2.09039 0.448978)
(2.81569 2.55413 0.398858)
(10.0367 1.03316 -1.72488)
(10.2014 1.15625 -2.02757)
(4.29009 2.29295 -0.520393)
(4.54009 1.99121 -0.286736)
(10.7047 0.665262 -1.55201)
(10.8437 0.667705 -1.73574)
(0.431498 0.506567 0.653929)
(6.09532 0.159035 -0.763336)
(4.53857 0.754082 -0.120529)
(5.0997 2.00009 -0.286148)
(10.008 1.16318 -1.52828)
(10.8277 1.04947 -1.3786)
(12.594 0.113826 0.311756)
(12.6477 0.15993 0.300689)
(12.5335 0.114454 0.247985)
(12.4896 0.116001 0.209326)
(12.4543 0.124316 0.220237)
(12.4672 0.114923 0.270002)
(12.5894 0.122069 0.263344)
(12.6551 0.132924 0.30121)
(12.5792 0.163364 0.309887)
(12.5363 0.102167 0.314143)
(12.396 0.132446 0.210667)
(12.3761 0.0985652 0.159698)
(12.4317 0.119934 0.229534)
(12.4623 0.117795 0.271458)
(12.3901 0.0992163 0.151982)
(12.4586 0.105377 0.165278)
(12.5543 0.10698 0.199285)
(12.5 0.11737 0.213115)
(9.72593 1.76063 -0.107658)
(9.42021 1.68428 0.641686)
(9.33093 2.05679 0.808587)
(9.70088 1.92562 0.150578)
(9.59522 2.07662 0.025267)
(9.21208 2.53262 0.272466)
(8.69881 2.72287 0.239519)
(9.35136 1.72989 -0.102466)
(9.53361 2.08367 0.571035)
(9.00385 1.93612 0.612897)
(8.85448 2.2066 0.651773)
(8.7922 2.68354 0.36215)
(9.29396 2.42087 0.5225)
(9.71954 1.79149 0.34831)
(9.6643 1.62024 0.341168)
(9.61594 1.65837 -0.04975)
(10.5704 0.663125 -0.251575)
(10.6445 0.664425 -0.202429)
(10.6029 0.608046 -0.240905)
(10.606 0.777069 -0.275127)
(10.7167 0.842679 -0.179775)
(10.5465 0.555446 -0.260552)
(10.481 0.639516 -0.330201)
(10.519 0.72948 -0.357122)
(10.5797 0.74608 -0.347644)
(10.5164 0.732818 -0.393047)
(10.5715 0.742467 -0.333079)
(10.6448 0.747829 -0.371026)
(10.592 0.737504 -0.41517)
(10.6971 0.765969 -0.317551)
(10.637 0.73585 -0.310565)
(10.4872 0.602967 -0.297363)
(10.4537 0.632892 -0.355547)
(11.7053 -0.0523663 0.788812)
(11.7121 -0.0261301 0.759805)
(11.8288 0.122897 0.656053)
(11.8309 0.156139 0.670981)
(11.8233 0.1636 0.675456)
(11.8224 0.119193 0.65253)
(11.7235 -0.017233 0.855423)
(11.7 -0.00805246 0.882871)
(11.8246 0.28846 0.801679)
(11.8165 0.379462 0.953724)
(11.6919 -0.0132871 0.714477)
(11.8332 0.122683 0.660457)
(11.8374 0.288083 0.807648)
(11.8375 0.324192 0.890153)
(11.6992 0.00620677 0.682894)
(11.8752 0.286695 0.873548)
(11.7677 0.00315252 0.818839)
(10.3087 -1.5311 0.409483)
(10.6415 -1.49139 0.420878)
(10.7559 -1.45619 0.542351)
(10.1359 -1.55264 0.48969)
(10.684 -1.45131 0.299154)
(10.056 -1.59078 0.401374)
(10.1447 -1.50368 0.0236046)
(9.90577 -1.62781 0.0303823)
(10.7187 -1.40796 0.350738)
(10.8183 -1.44269 0.450636)
(10.8006 -1.43363 0.557753)
(10.1769 -1.62349 0.451227)
(9.67528 -1.69622 -0.0465955)
(10.0153 -1.54281 0.00794067)
(9.92288 -1.70983 -0.0657442)
(10.3135 -1.41505 0.0764716)
(9.66322 -1.78864 -0.0135004)
(9.70349 -1.77938 -0.0337723)
(12.3645 -0.589001 0.328606)
(12.554 -0.499382 0.381359)
(12.547 -0.460536 0.361123)
(12.5249 -0.412364 0.214796)
(12.3164 -0.499207 0.182843)
(12.5735 -0.366123 0.318402)
(12.3479 -0.589143 0.328623)
(12.4888 -0.495782 0.356149)
(12.4744 -0.47878 0.337523)
(12.5553 -0.354555 0.313662)
(12.4561 -0.432318 0.203284)
(12.4111 -0.496309 0.293147)
(12.4822 -0.398485 0.24769)
(12.2878 -0.601975 0.251974)
(11.999 -0.874577 0.541598)
(12.062 -0.81803 0.563434)
(11.9733 -0.765582 0.878601)
(12.323 -0.60571 0.893933)
(11.9816 -0.754013 0.904764)
(11.9544 -0.801612 0.886968)
(11.7992 -0.931302 0.651835)
(12.0748 -0.808821 0.538325)
(12.1634 -0.740279 0.590492)
(11.8992 -0.918106 0.807521)
(11.9134 -0.885136 0.791749)
(11.8384 -0.91584 0.680721)
(12.0749 -0.814802 0.579044)
(12.3702 -0.620579 0.677706)
(12.364 -0.629511 0.662177)
(11.8977 -0.874073 0.634622)
(12.3314 -0.657972 0.729117)
(12.0281 -0.809648 0.745879)
(10.612 3.34615 -0.778519)
(10.9847 3.27079 -0.683401)
(10.9793 3.02408 -0.635691)
(10.4113 3.2792 -0.550743)
(10.7217 3.47966 -0.55664)
(11.33 2.9799 -0.342804)
(11.1814 2.61697 -0.309355)
(11.0253 3.40616 -0.00687462)
(11.2365 3.22863 0.0291841)
(10.5774 3.3388 -0.163765)
(11.0888 2.54762 -0.253865)
(11.0788 3.57218 -0.187297)
(11.6309 -0.109476 1.0707)
(12.2542 -0.0674747 1.07519)
(11.3821 -0.296991 1.03061)
(12.2172 -0.0501901 1.06549)
(11.4865 -0.052797 1.10036)
(11.8685 -0.251463 0.932998)
(11.4431 -0.199854 1.03694)
(11.496 -0.253377 0.989949)
(11.7307 -0.283811 0.973737)
(12.5046 -0.0426339 0.922532)
(12.6328 -0.0542045 0.839889)
(12.4733 -0.0713724 0.894127)
(12.2469 -0.174908 0.824822)
(12.3731 -0.184852 0.793539)
(12.6074 -0.0646062 0.837434)
(12.3587 -0.171234 0.791193)
(12.5687 -0.0716188 1.06606)
(12.3344 0.0178244 1.03135)
(12.4881 -0.0446427 1.04455)
(12.3313 0.0222307 0.997982)
(11.967 -0.0112857 1.14034)
(11.8417 -0.174473 1.19584)
(11.4593 -0.272386 1.18483)
(11.9569 -0.00451444 1.22102)
(11.9883 -0.0091068 1.11961)
(12.3042 0.029765 1.01736)
(12.4234 -0.0310882 1.03729)
(12.3768 -0.176177 1.09635)
(11.5164 -0.290016 1.1441)
(12.2982 -0.160814 1.06134)
(12.1546 -0.289439 1.08142)
(12.154 -0.264464 1.09754)
(12.4423 0.468968 0.590206)
(12.5081 0.483973 0.612344)
(12.5592 0.415116 0.563753)
(12.3729 0.52549 0.440974)
(12.1759 0.702418 0.562871)
(12.3954 0.289164 0.529493)
(12.323 0.299887 0.519904)
(12.582 0.573281 0.555269)
(12.469 0.647805 0.623295)
(12.4122 0.631327 0.461185)
(12.2617 0.71566 0.560805)
(12.3851 0.589383 0.627492)
(12.3237 0.549199 0.598985)
(12.2041 0.512349 0.623891)
(12.2907 0.431574 0.52165)
(12.47 0.303209 0.533575)
(12.4314 0.360786 0.499673)
(12.3532 0.356464 0.51958)
(12.4731 0.524027 0.502412)
(11.1856 -0.283518 -0.583583)
(11.1447 -0.293891 -0.563903)
(11.5376 -0.300173 -0.501302)
(10.7801 -0.310398 -0.589165)
(11.2399 -0.268774 -0.583017)
(10.8715 -0.332729 -0.56643)
(11.1368 -0.346639 -0.585902)
(11.6556 -0.276074 -0.543599)
(11.1231 -0.348498 -0.497132)
(11.8876 -0.311749 -0.429257)
(10.8804 -0.35908 -0.560934)
(11.2614 -0.394308 -0.5146)
(11.3361 -0.400228 -0.42916)
(11.3153 -0.417496 -0.455105)
(9.12346 -0.38365 -0.401756)
(9.05614 -0.37033 -0.387957)
(9.78198 -0.406542 -0.270796)
(9.37223 -0.395924 -0.353047)
(9.43768 -0.387721 -0.322138)
(9.55949 -0.36113 -0.366401)
(10.2538 -0.336137 -0.208619)
(9.95779 -0.394741 -0.3905)
(9.77719 -0.387643 -0.408961)
(10.694 -0.342875 -0.227468)
(10.532 -0.32379 -0.236164)
(9.35046 -0.405271 -0.455459)
(10.4246 -0.334654 -0.234105)
(10.1835 -0.348132 -0.329245)
(10.1733 -0.343952 -0.321073)
(10.6739 -0.341825 -0.227731)
(10.5746 -0.322847 -0.236076)
(10.2621 -0.295444 -0.296327)
(11.7743 1.25916 -0.116354)
(11.3979 1.3616 -0.530059)
(11.0896 1.49239 -0.787705)
(12.406 0.591783 -0.20245)
(12.319 0.811382 -0.175271)
(11.7937 1.07921 -0.438567)
(11.988 1.00448 -0.128345)
(12.5222 0.546268 -0.193619)
(12.3558 0.818018 -0.144146)
(11.4184 1.06325 -0.746626)
(11.9342 0.796362 -0.549562)
(4.93122 -1.00466 -0.707428)
(5.09361 -1.0879 -0.663694)
(4.89117 -0.802198 -0.696)
(4.67741 -0.676395 -0.775757)
(3.59491 -0.0020194 -1.00048)
(3.15513 0.283855 -0.782667)
(3.08665 0.403463 -1.04262)
(2.83285 0.456112 -0.86724)
(5.45016 -1.15069 -0.843723)
(5.77238 -1.23551 -0.830057)
(4.81899 -0.854179 -0.664258)
(4.1113 -0.210273 -0.84253)
(4.06168 -0.0446531 -0.89637)
(3.73749 -0.10866 -0.711459)
(3.57438 0.146675 -0.857966)
(3.6372 0.0222976 -0.791557)
(3.05683 0.343103 -0.958767)
(5.5809 -1.09677 -0.782189)
(5.2665 -0.78334 -0.899933)
(5.60053 -1.02332 -0.810272)
(4.97012 -0.74276 -0.999131)
(13.3995 -0.145259 0.470439)
(13.408 -0.153863 0.438857)
(13.4002 -0.0834582 0.4871)
(13.4278 -0.116204 0.451184)
(13.4023 -0.0941873 0.495432)
(13.3935 -0.153515 0.459975)
(13.3923 -0.149071 0.475039)
(13.3869 -0.0822797 0.452831)
(13.3531 -0.0672526 0.480094)
(13.2769 -0.0755971 0.507374)
(13.2878 -0.0965933 0.479807)
(13.2344 -0.0774294 0.508561)
(13.389 -0.0901973 0.446599)
(13.276 -0.0681331 0.504222)
(13.1966 -0.0649156 0.482574)
(13.2984 -0.0799113 0.458452)
(13.1992 -0.0534502 0.482881)
(12.1805 0.296383 1.05414)
(12.0331 0.284196 1.06406)
(11.7319 0.212787 1.16232)
(11.0761 0.223997 1.13234)
(12.1411 0.291344 1.09347)
(12.0259 0.266455 1.13333)
(11.0808 0.58907 0.724097)
(11.0786 0.444432 0.872772)
(11.8409 0.220339 1.16446)
(11.0671 0.254924 1.10293)
(11.2243 0.42857 1.13111)
(7.76203 0.0392969 0.457093)
(7.83767 0.16505 0.347172)
(7.57261 0.200318 0.374839)
(6.05531 -0.0234486 0.193673)
(7.17698 -0.0107199 0.464123)
(5.24152 -0.0306913 0.184523)
(4.74243 -0.0597132 0.154588)
(5.8112 -0.0145644 0.472887)
(7.2303 0.0944989 0.550555)
(7.41989 0.0774163 0.429853)
(5.62472 0.0412578 0.369143)
(6.02504 0.0596937 0.335158)
(5.89427 0.0794369 0.491267)
(12.4441 -0.309432 -0.247068)
(12.4089 -0.287892 -0.238907)
(12.5237 -0.315393 -0.154627)
(12.5473 -0.317362 -0.157161)
(12.3536 -0.364447 -0.230417)
(12.3677 -0.351443 -0.219421)
(12.3202 -0.332432 -0.292158)
(12.3008 -0.329817 -0.296323)
(12.4926 -0.286159 -0.167026)
(12.5614 -0.305245 -0.179395)
(12.359 -0.286313 -0.25227)
(12.3779 -0.274229 -0.238651)
(12.5968 -0.309767 -0.147277)
(12.3233 -0.344078 -0.258943)
(12.5518 -0.295692 -0.131868)
(12.5208 -0.290897 -0.14894)
(12.366 -0.286758 -0.22976)
(12.4049 -0.281986 -0.20733)
(12.511 -0.289437 -0.144569)
(12.5144 -0.294169 -0.140571)
(12.472 -0.296584 -0.173293)
(12.3928 -0.311816 -0.217117)
(11.9621 -0.468774 -0.446975)
(12.4855 -0.405725 -0.377773)
(11.7102 -0.362542 -0.529732)
(12.5277 -0.308935 -0.41428)
(12.5681 -0.410889 -0.372365)
(11.4979 -0.460248 -0.400526)
(11.6457 -0.312 -0.535621)
(12.547 -0.298259 -0.408233)
(12.0932 -0.313711 -0.493837)
(11.4783 -0.452301 -0.374297)
(12.047 -0.401918 -0.321906)
(12.0953 -0.431942 -0.368061)
(11.2761 -0.365774 -0.564291)
(12.5036 -0.304631 -0.413945)
(12.0797 -0.300838 -0.494468)
(11.1408 -0.378575 -0.592427)
(11.6722 -0.323695 -0.592895)
(12.278 -0.370672 -0.405988)
(12.5534 -0.386628 -0.379144)
(12.5226 -0.371787 -0.396376)
(12.831 0.656709 0.326457)
(12.6182 0.71675 0.342162)
(12.4642 0.724558 0.453346)
(12.524 0.678082 0.539662)
(12.8057 0.64401 0.308679)
(12.6549 0.687187 0.336619)
(12.4684 0.678244 0.550474)
(12.3692 0.714586 0.481306)
(12.8557 0.616584 0.437326)
(12.835 0.569029 0.50928)
(12.8835 0.576236 0.467606)
(12.8102 0.624554 0.344152)
(12.7738 0.616846 0.340248)
(12.6394 0.68132 0.346631)
(12.8972 0.578292 0.471779)
(12.846 0.570732 0.532457)
(12.7949 0.567055 0.453963)
(12.61 0.66673 0.343672)
(12.3539 0.681992 0.484119)
(12.4312 0.671835 0.578408)
(12.4412 0.646822 0.481426)
(12.3711 0.667198 0.538357)
(11.2229 0.178805 0.924901)
(11.2783 0.271772 0.92766)
(12.455 0.274581 0.926214)
(12.3604 0.309103 0.906578)
(12.2567 0.245097 0.983367)
(12.1019 0.307842 0.993911)
(12.2982 0.237444 0.946426)
(12.2478 0.217401 0.975249)
(12.0118 0.179011 0.953572)
(11.3493 0.183146 0.917203)
(11.2249 0.121515 0.892656)
(11.3498 0.173545 0.884149)
(12.1547 0.359682 0.919678)
(12.2607 0.34001 0.865142)
(12.3869 0.292987 0.889816)
(11.4875 0.208216 0.914347)
(11.7424 0.295164 0.859507)
(12.5574 0.579152 0.915451)
(12.5656 0.653401 0.888309)
(12.8319 0.38052 0.842349)
(12.7926 0.487354 0.804577)
(12.8515 0.420491 0.816205)
(12.9731 0.38512 0.809164)
(13.0154 0.364892 0.777109)
(12.8871 0.581822 0.73262)
(12.85 0.573159 0.745717)
(12.7908 0.668013 0.733711)
(12.8622 0.647354 0.731237)
(13 0.432733 0.768571)
(12.8445 0.682434 0.734334)
(12.7724 0.68168 0.733637)
(10.9424 0.822779 -0.399193)
(10.8938 0.752421 -0.24986)
(10.8385 0.702709 -0.247776)
(10.8765 0.763211 -0.431384)
(10.8097 0.756096 -0.436136)
(10.9391 0.61268 -0.294911)
(10.8802 0.550798 -0.266473)
(10.9735 0.676058 -0.308126)
(10.9262 0.613246 -0.312329)
(10.8544 0.562273 -0.282366)
(13.1948 -0.165833 0.630816)
(13.1923 -0.185618 0.62543)
(13.1385 -0.132517 0.670674)
(13.1355 -0.134937 0.637536)
(13.1628 -0.221295 0.646713)
(13.136 -0.227847 0.657899)
(13.1642 -0.147912 0.646901)
(13.1421 -0.117781 0.660261)
(13.1514 -0.217702 0.658541)
(13.1342 -0.110264 0.681797)
(13.1405 -0.137981 0.703281)
(13.134 -0.115622 0.710756)
(13.1356 -0.0959502 0.687539)
(13.1153 -0.18053 0.697549)
(13.1455 -0.0940466 0.690297)
(13.136 -0.10982 0.709124)
(13.1032 -0.175884 0.697425)
(8.48965 0.0232127 0.151739)
(8.40309 0.00919521 0.195128)
(8.25327 0.0743712 0.223236)
(7.65991 -0.133411 0.0218279)
(7.64237 -0.0911059 -0.05015)
(8.1507 0.0829377 0.124508)
(8.3662 -0.366167 -0.356847)
(8.39123 -0.310113 -0.329393)
(8.21193 -0.271652 -0.27738)
(8.03796 -0.271773 -0.246619)
(8.32788 0.0956603 0.250673)
(8.40542 0.0662736 0.17791)
(8.47937 -0.109048 0.0878718)
(8.49861 -0.0312994 0.096761)
(7.99806 -0.23205 -0.227124)
(8.00183 -0.159258 -0.20227)
(7.69104 -0.0761782 -0.0861067)
(8.29091 0.0664225 0.109255)
(8.44713 -0.133596 0.0515819)
(8.29621 -0.0395758 0.0079202)
(11.8241 -0.0111916 0.536394)
(11.6778 -0.0743874 0.527595)
(11.672 -0.0130738 0.509305)
(11.7864 0.0131323 0.530327)
(11.661 -0.117803 0.546658)
(11.3786 -0.0917856 0.536887)
(11.5945 -0.18446 0.524464)
(11.8395 -0.0278917 0.483325)
(11.8315 -0.00603109 0.514407)
(11.7772 -0.0675776 0.511665)
(11.4069 -0.206743 0.46637)
(11.3494 -0.120728 0.535351)
(11.8018 0.0184613 0.516887)
(11.5595 -0.087925 0.511423)
(11.5667 -0.124894 0.492052)
(11.3125 -0.175438 0.49216)
(2.8127 -0.0219108 0.733434)
(2.87222 -0.238262 0.914422)
(1.83024 -0.187641 1.17963)
(1.79302 0.0705758 1.11211)
(5.71187 -0.522423 0.588464)
(4.16045 -0.381651 0.602943)
(7.39072 -0.142249 0.65422)
(5.37658 0.230566 0.724515)
(3.06845 0.494688 1.27078)
(4.41604 -0.0145365 1.02005)
(7.32098 -0.153351 0.560995)
(5.55199 -0.102487 0.744627)
(4.56761 0.374032 0.688896)
(12.5054 -0.0200234 1.12388)
(12.4607 0.072761 1.19883)
(12.5676 -0.0478579 1.09322)
(12.6886 -0.0646626 0.997482)
(12.8574 -0.067419 0.93689)
(12.7629 -0.0444922 1.03104)
(12.4457 0.0884193 1.21516)
(12.5984 0.198558 1.0626)
(12.7314 0.0441219 1.00426)
(12.6713 -0.0414323 0.976069)
(12.9427 0.00408515 0.901791)
(12.6229 0.257572 1.02694)
(11.7878 0.388907 -0.111391)
(11.7407 0.29055 -0.142259)
(11.7909 0.255037 -0.155473)
(11.882 0.388761 -0.0896372)
(11.8211 0.332596 -0.0928934)
(11.8596 0.307085 -0.112142)
(12.0141 0.370459 -0.114473)
(12.1065 0.379817 -0.131483)
(12.0092 0.280897 -0.132484)
(11.9641 0.268277 -0.13109)
(12.0276 0.598918 -0.215195)
(12.1134 0.593213 -0.215143)
(11.9482 0.544813 -0.240108)
(12.0104 0.53715 -0.223113)
(11.8553 0.534445 -0.245635)
(11.9006 0.455079 -0.16605)
(11.9178 0.361386 -0.101393)
(11.9618 0.547186 -0.208312)
(11.9878 0.430349 -0.142973)
(11.6795 -0.375418 0.387898)
(11.6212 -0.335316 0.451335)
(11.9229 -0.289854 0.317017)
(11.9022 -0.230813 0.362349)
(11.945 -0.22329 0.384507)
(12.3271 -0.279194 0.50951)
(12.1372 -0.293602 0.503249)
(11.7845 -0.317633 0.410967)
(12.0995 -0.346207 0.357032)
(12.8339 -0.222303 0.643932)
(12.83 -0.238208 0.63176)
(11.9588 -0.313866 0.488135)
(12.7996 -0.292149 0.495895)
(12.577 -0.302272 0.463696)
(12.7537 -0.23369 0.589034)
(12.9534 -0.2321 0.626556)
(12.9782 -0.219267 0.592844)
(12.6285 -0.304485 0.533551)
(12.8991 -0.221419 0.554378)
(1.23528 0.86591 -1.06304)
(1.34873 0.802292 -1.28964)
(2.08667 0.5678 -1.17879)
(1.83259 0.590292 -1.06901)
(1.57121 0.665877 -1.12229)
(1.67585 0.657245 -1.19653)
(2.17929 0.292796 -1.15845)
(2.4922 0.152284 -1.25443)
(2.73763 0.0823024 -1.21127)
(2.58776 0.203569 -1.08828)
(3.27139 -0.100225 -0.988933)
(3.36554 -0.205644 -1.10808)
(2.8078 0.358729 -1.06236)
(3.21046 -0.0357704 -1.19465)
(2.93471 0.293517 -1.01813)
(2.18541 0.488351 -1.17272)
(10.9312 0.503417 -0.317907)
(10.8491 0.471402 -0.250325)
(10.9018 0.480426 -0.331005)
(10.9966 0.540137 -0.396185)
(10.9285 0.533617 -0.670664)
(10.8516 0.525252 -0.664046)
(10.8575 0.477433 -0.307702)
(10.9584 0.550328 -0.537565)
(10.896 0.558164 -0.658685)
(10.8479 0.524786 -0.668177)
(10.8179 0.398677 -0.378482)
(10.9112 0.460537 -0.489396)
(10.8996 0.546528 -0.489717)
(10.78 0.410383 -0.380925)
(10.7382 0.408005 -0.389046)
(10.8085 0.503005 -0.51171)