/*--------------------------------*- C++ -*----------------------------------*\
  =========                 |
  \\      /  F ield         | OpenFOAM: The Open Source CFD Toolbox
   \\    /   O peration     | Website:  https://openfoam.org
    \\  /    A nd           | Version:  10
     \\/     M anipulation  |
\*---------------------------------------------------------------------------*/
FoamFile
{
    format      ascii;
    class       volScalarField;
    location    "3";
    object      C;
}
// * * * * * * * * * * * * * * * * * * * * * * * * * * * * * * * * * * * * * //

dimensions      [1 3 0 0 0 0 0];

internalField   nonuniform List<scalar> 
75457
(
0.00666899
0.00720844
0.0160589
0.026345
0.00639753
0.00773411
0.0117636
0.0091174
0.0414867
0.0384849
0.0375864
0.00845163
0.010556
0.0301742
3.71959e-13
8.23253e-13
4.78165e-12
2.55107e-12
1.68997e-12
1.88636e-12
1.51889e-12
3.42183e-12
2.86156e-12
4.04347e-12
7.91887e-12
1.61237e-12
7.366e-13
4.80523e-19
2.08785e-19
1.88508e-19
7.82632e-20
4.76737e-20
2.91426e-20
4.34261e-19
1.7887e-19
4.01832e-19
6.53157e-19
8.26117e-20
4.81652e-20
8.43058e-20
1.80309e-19
4.77114e-20
1.8639e-19
8.03357e-09
9.04096e-09
1.3514e-08
9.93321e-09
7.28005e-09
4.73399e-13
1.04193e-12
1.71921e-12
8.07655e-13
2.98307e-13
7.02876e-13
1.77496e-12
3.03591e-12
6.43002e-13
9.80824e-13
7.1816e-13
3.97322e-13
4.98348e-13
1.55249e-12
0.499167
0.499425
0.499478
0.499659
0.499858
0.499811
0.499844
0.499735
0.499876
0.499816
0.499704
0.49976
0.499903
0.499692
0.499823
1.4926e-18
5.83196e-20
5.7162e-21
6.65074e-17
7.99438e-18
7.99772e-22
6.38103e-21
6.71373e-20
1.05408e-20
7.59573e-21
1.60978e-21
9.46009e-18
6.52783e-17
5.99472e-19
6.41051e-22
1.36656e-17
5.3745e-19
2.54681e-07
4.5006e-07
4.41319e-07
6.84315e-07
2.20687e-07
2.78059e-07
5.55068e-07
3.80818e-07
0.5
0.5
0.5
0.5
0.5
0.5
0.5
0.5
0.5
0.5
0.5
0.498802
0.498969
0.499729
0.499399
0.498892
0.499397
0.499302
0.499155
0.499181
0.499517
0.499662
0.499829
0.499845
0.499592
0.499506
0.499319
0.499757
0.499561
0.436031
0.427505
0.425327
0.440868
0.427482
0.459137
0.452582
0.451127
0.43706
0.243564
0.227507
0.23322
0.212652
0.210487
0.198961
0.20167
0.186209
0.0120921
0.0130277
0.0151494
0.0162376
0.0159417
0.0208343
0.0183239
0.0230442
0.0265552
0.0211087
0.0197196
0.0197555
0.0184544
0.0258578
0.0242432
0.489592
0.492838
0.494812
0.492017
0.494112
0.486443
0.487882
0.490694
0.489262
0.491938
0.49109
0.485938
0.487289
0.00175831
0.00182612
0.00258398
0.00162246
0.0022293
0.00157742
0.00152813
0.00118753
0.0010284
0.00131064
0.00115488
0.000998654
0.000878579
0.00105231
6.41567e-05
6.05987e-05
8.60168e-05
3.09879e-05
2.78567e-05
3.59176e-05
0.153237
0.157545
0.141831
0.142784
0.130546
0.124173
0.157723
0.136111
0.143726
0.106351
0.102121
9.89931e-07
8.24563e-07
6.11227e-07
5.64433e-07
8.70963e-07
5.02213e-07
6.02572e-07
3.18783e-07
1.98528e-07
3.84289e-07
5.69431e-07
3.90173e-07
3.12288e-07
2.6947e-07
0.079744
0.0675337
0.0643957
0.048587
0.0570666
0.050545
0.0645055
0.0756619
0.0619116
0.0681934
0.0585699
0.0454062
0.07606
0.054491
4.74042e-08
4.3272e-08
1.20173e-08
8.20492e-09
1.27836e-08
2.08101e-08
3.45792e-08
2.76642e-08
2.46245e-08
6.24961e-09
7.72773e-09
7.79819e-09
1.88616e-08
1.34706e-08
1.17187e-08
1.29204e-08
1.85655e-08
1.42174e-07
1.54448e-07
3.91116e-07
2.42211e-07
6.91392e-07
5.60856e-07
2.47236e-07
7.20418e-07
1.2661e-06
1.06009e-06
2.60892e-07
3.36973e-07
9.07514e-09
8.32935e-09
7.47041e-09
6.5941e-09
1.44743e-08
3.65753e-08
1.95004e-08
2.544e-08
4.67611e-08
2.54137e-08
1.55101e-08
1.56839e-08
2.53936e-08
0.000557776
0.000706692
0.000483047
0.00137755
0.00108443
0.00108783
0.000949985
0.0015337
0.00126914
0.00074442
0.000992776
0.000735027
0.00145295
0.000884717
0.00127884
9.90549e-23
2.05336e-22
4.15528e-23
5.95651e-23
5.31966e-23
4.992e-22
2.28873e-22
1.05279e-22
2.5298e-22
1.49473e-26
1.91005e-26
8.4238e-26
4.18111e-26
7.47224e-26
2.77133e-26
3.22091e-26
1.0233e-25
1.33473e-26
1.69215e-26
4.04226e-26
1.01165e-26
2.02668e-26
5.25324e-16
9.63193e-17
3.86468e-17
3.25513e-16
8.84177e-16
5.83031e-16
7.11638e-16
6.03492e-18
1.48689e-17
8.21371e-17
2.26167e-17
9.23882e-09
1.13554e-08
1.82865e-08
1.4292e-08
9.43238e-09
4.84366e-09
6.24199e-09
1.8574e-08
1.15107e-08
1.59546e-08
2.85422e-08
1.73055e-08
9.56561e-09
6.86298e-09
2.60665e-08
7.49397e-09
1.12821e-08
3.39349e-11
9.84066e-12
2.64842e-12
2.21419e-12
6.73035e-13
5.33773e-11
7.35506e-12
1.03003e-11
7.3214e-11
1.25212e-13
2.18004e-13
1.5074e-15
2.0787e-15
5.00693e-15
3.85044e-15
7.50488e-16
1.92741e-15
8.72224e-16
1.82929e-15
2.39484e-15
8.21501e-16
1.34091e-15
5.71111e-22
1.19526e-21
9.32025e-22
2.19621e-21
5.16681e-22
2.82721e-22
7.88058e-22
4.54603e-22
1.1051e-21
1.95428e-21
3.38788e-22
2.36585e-22
8.2985e-22
1.78898e-21
8.64059e-22
1.00772e-14
3.85341e-15
2.23326e-14
1.96494e-14
5.94638e-15
1.95861e-10
3.51813e-10
2.18444e-10
3.04674e-10
5.67528e-10
3.79579e-10
6.78767e-10
0.26198
0.245705
0.300217
0.284371
0.247724
0.231363
0.276935
0.255587
0.237558
0.222879
0.292598
0.271944
0.250585
0.244177
0.306642
0.267374
0.256725
0.293314
0.314619
0.323001
0.317517
0.307324
0.329809
0.313912
0.334729
0.323302
0.301135
0.308583
0.32471
0.33287
0.309693
0.21917
0.233687
0.26785
0.278524
0.260887
0.255516
0.271481
0.282446
0.217825
0.224322
0.242631
0.233978
0.260494
0.271772
0.255416
0.287194
0.265633
0.254138
0.264427
0.276008
0.246367
0.280145
6.59523e-06
6.85725e-06
6.62263e-06
9.86013e-06
9.44735e-06
2.51095e-05
1.84116e-05
2.29002e-05
6.09724e-06
9.72687e-06
6.90258e-06
1.40485e-05
1.77021e-05
9.10588e-06
1.16384e-05
1.19011e-05
0.0241269
0.00998624
0.00988983
0.0124343
0.0541975
0.0575673
0.0214705
0.0198406
0.0600873
0.0652575
0.0085337
0.0327697
0.0204878
0.0279322
0.0489582
0.0538912
0.09198
0.0778912
0.0912342
0.0988081
0.103938
0.112492
0.082905
0.0728602
0.0874285
0.104945
0.128765
0.116607
0.116824
0.100042
0.0976235
0.0875834
0.0815115
0.0937507
0.351606
0.340333
0.32448
0.333627
0.320684
0.291645
0.28404
0.343833
0.321591
0.31373
0.305707
0.293158
0.302761
0.340693
0.350554
0.3618
0.480408
0.48093
0.486277
0.478214
0.477969
0.489451
0.491417
0.48872
0.485234
0.49115
0.489368
0.48489
0.487665
0.484012
0.487362
0.49338
0.494037
0.353264
0.368508
0.365186
0.380149
0.366084
0.352982
0.341239
0.348378
0.355382
0.338319
0.334454
0.34003
0.340387
0.332748
0.321883
0.319129
0.325083
2.83873e-15
7.19293e-15
1.57024e-14
6.63404e-15
9.59237e-15
3.23762e-15
4.29232e-15
1.57691e-15
1.93793e-14
3.85105e-14
2.68248e-14
1.10927e-14
2.12818e-15
1.33729e-14
9.98825e-15
1.92543e-14
2.01326e-15
4.09127e-15
4.43827e-14
1.05231e-13
5.28066e-14
2.94059e-14
2.42822e-14
3.21219e-14
2.37033e-14
2.70291e-14
1.17091e-14
1.43625e-14
1.51941e-14
5.45785e-15
7.13739e-15
1.22372e-14
8.22395e-13
6.34415e-13
8.49858e-13
2.70039e-12
2.09026e-12
1.39593e-12
7.20289e-13
1.64997e-12
1.23346e-12
1.6415e-12
2.56052e-12
1.33109e-12
2.06423e-12
2.15388e-12
3.3509e-12
2.58819e-12
4.60765e-12
3.88739e-12
0.203574
0.195778
0.207734
0.215737
0.201
0.19387
0.21668
0.222446
0.215829
0.238981
0.23905
0.197616
6.90921e-08
1.06564e-07
1.99008e-07
1.68954e-07
1.05934e-07
1.1035e-07
2.32049e-07
3.40983e-07
1.52886e-07
1.91731e-07
2.47938e-07
5.54764e-07
6.29066e-07
3.13109e-07
3.45254e-07
4.71546e-07
7.28061e-14
5.13322e-14
3.75302e-14
3.11441e-14
2.98749e-14
3.84211e-14
7.66138e-15
8.83169e-15
1.91348e-14
2.00872e-14
2.43734e-14
6.72038e-14
1.71402e-14
1.3185e-14
1.92224e-14
3.12657e-14
0.111502
0.0975206
0.0842639
0.106253
0.117003
0.10493
0.118867
0.0789146
0.0908521
0.0987784
0.104288
0.103037
0.117097
0.136074
0.125318
0.0924288
0.103644
0.117509
0.090615
7.70235e-15
3.56e-15
9.52898e-16
1.70406e-14
1.29721e-14
3.73076e-15
4.54122e-14
3.2602e-14
1.96107e-15
5.8617e-15
7.8473e-15
2.48871e-14
4.31091e-15
1.03851e-14
1.05515e-18
5.25803e-19
1.81063e-18
2.54638e-18
5.77693e-19
7.5878e-18
5.95933e-18
2.40827e-18
4.12633e-18
1.57446e-17
5.10911e-18
1.05249e-17
3.51587e-17
6.12591e-18
1.47491e-17
6.55735e-18
3.01551e-18
2.15236e-17
0.0255072
0.0158246
0.0166616
0.0312477
0.0361191
0.0149886
0.0224229
0.0264497
0.0303652
0.0148432
0.0161377
4.72903e-18
8.10624e-18
1.63616e-17
6.99314e-18
4.69086e-18
1.43455e-17
3.00067e-18
6.81418e-18
5.23654e-18
9.54237e-18
2.17055e-17
1.47284e-17
8.10837e-18
1.80494e-17
7.98749e-18
1.44148e-17
3.91362e-18
2.26426e-17
1.07912e-17
2.09449e-17
4.35135e-18
5.52173e-05
6.40137e-05
0.000115872
8.69146e-05
8.88215e-05
3.2483e-05
4.07092e-05
8.01854e-05
0.000105058
4.36183e-05
2.41435e-05
3.13004e-05
5.67792e-05
5.88334e-05
4.35927e-05
3.46119e-05
6.54332e-05
6.21423e-13
4.25159e-13
5.94016e-13
2.24549e-13
1.04059e-12
6.90431e-13
3.49741e-13
2.26237e-13
8.49491e-13
3.18223e-13
5.5837e-13
1.38724e-15
6.50604e-16
6.13356e-16
1.14003e-16
5.64641e-16
2.48032e-17
1.48911e-17
2.29222e-16
1.75319e-16
1.93745e-16
1.81259e-17
2.65236e-17
5.87429e-17
5.61125e-15
2.59232e-15
1.33239e-15
3.04657e-15
2.49285e-15
1.07347e-15
3.26186e-15
1.47826e-15
2.09522e-15
4.79129e-15
5.87898e-16
1.32517e-15
3.81782e-15
7.11163e-16
1.50552e-15
6.41987e-16
4.05672e-16
6.77841e-16
4.06577e-16
6.20356e-16
1.01518e-15
2.97151e-16
1.70675e-10
1.87518e-10
1.2194e-10
1.22579e-10
8.57048e-11
3.61596e-11
8.65629e-11
7.27188e-11
4.30719e-11
1.36566e-11
1.00228e-11
2.61486e-11
3.52898e-11
4.37889e-11
2.55788e-11
1.73642e-11
1.11727e-11
7.90276e-12
4.5625e-11
2.34273e-11
4.52424e-12
4.94665e-12
8.08138e-12
7.86734e-12
2.68761e-12
2.97165e-12
4.25368e-12
4.21724e-12
5.12746e-12
1.54612e-12
2.35122e-12
1.58923e-12
8.7731e-13
1.78631e-12
3.86139e-12
2.11015e-12
7.81287e-13
1.00785e-12
2.48515e-12
2.43113e-12
8.52446e-13
1.73241e-12
7.18287e-14
9.59641e-14
3.8394e-13
5.63806e-13
1.99379e-13
2.09036e-13
9.16205e-14
1.20132e-13
6.11797e-14
5.55744e-14
1.04046e-13
1.72684e-13
3.54555e-13
2.33836e-13
1.85585e-13
8.17747e-14
1.57283e-13
1.235e-07
9.34305e-08
1.3159e-07
1.6151e-07
1.59856e-07
8.04688e-08
1.23646e-07
9.95413e-08
1.39988e-07
1.00089e-07
7.52549e-08
8.27763e-08
5.91481e-08
6.88077e-08
0.364173
0.400897
0.413063
0.374785
0.389462
0.407419
0.419675
0.390093
0.400121
0.415127
6.05064e-08
3.89218e-08
1.54252e-08
2.58456e-08
3.15228e-08
4.4489e-08
4.01996e-08
6.4613e-08
1.92621e-08
2.03159e-08
1.88875e-08
2.92349e-08
3.08451e-08
1.82222e-08
4.58064e-08
4.37252e-08
2.87184e-08
2.69222e-08
4.43532e-08
1.01064e-08
1.74825e-08
8.28677e-09
4.99096e-09
9.57382e-08
5.27112e-08
3.03025e-08
3.59223e-08
1.15114e-08
1.11675e-08
6.59015e-08
2.82105e-08
5.10179e-08
1.24034e-08
4.30458e-09
5.76694e-09
2.31738e-08
8.80423e-09
0.384891
0.361757
0.35144
0.369458
0.371572
0.341987
0.393355
0.402987
0.394412
0.39171
0.375796
0.354057
0.380561
0.363215
0.376035
0.364679
0.000749432
0.000432174
0.000266194
0.000381376
0.00206706
0.000786963
0.0033948
0.00198677
0.000555909
0.00075993
0.00250523
0.00124148
0.0011681
5.38e-09
6.86855e-09
7.22589e-09
1.26421e-08
8.99363e-09
5.49371e-09
9.14095e-09
1.01006e-08
7.84282e-09
1.93589e-08
1.23761e-08
1.38603e-08
0.193112
0.197223
0.182076
0.1775
0.175271
0.171709
0.145964
0.133041
0.147013
0.162295
0.164928
0.150932
0.173402
0.158691
0.193445
0.167423
0.156314
0.17775
0.152507
9.74198e-07
5.96616e-07
7.26876e-07
5.07306e-07
4.80555e-07
1.07004e-06
6.47214e-07
3.84361e-07
9.96138e-07
5.92416e-07
8.75719e-07
2.76692e-07
1.30918e-06
7.25901e-07
1.37625e-06
6.37684e-07
8.96233e-07
4.67777e-07
1.35967e-06
3.3739e-20
7.59876e-20
2.41893e-19
9.58304e-20
8.48416e-20
1.93882e-19
7.09454e-20
7.098e-20
1.32076e-19
2.91946e-19
1.03622e-18
5.18902e-19
7.96047e-19
3.74782e-19
1.55305e-18
3.62601e-19
0.362332
0.369424
0.345749
0.339749
0.334424
0.350272
0.385575
0.340588
0.348447
0.364295
0.3673
0.347093
0.358054
0.385902
0.409836
0.386121
0.0016837
0.00124605
0.00111903
0.000916079
0.00223646
0.00145798
0.00106845
0.00132431
0.00186435
0.00245563
0.00141426
0.00177249
0.00124644
0.00182696
0.00286349
0.00119755
0.00205124
0.00158413
0.00232075
0.00171189
0.496068
0.499329
0.499043
0.498621
0.495671
0.497557
0.498849
0.498538
0.498393
0.49913
0.499396
0.498337
0.499277
0.498694
0.498348
0.2243
0.247783
0.175608
0.192853
0.215419
0.227728
0.163815
0.180963
0.122035
0.117353
0.13931
0.141848
0.130706
0.1541
0.00553272
0.00609517
0.00872549
0.00759502
0.00436302
0.00508614
0.00684109
0.00684589
0.00972561
0.0111112
0.00877499
0.00879654
0.00711102
0.0059598
0.00958794
0.00782832
1.46635e-11
8.84507e-12
1.62331e-11
3.06906e-11
5.92435e-12
9.75202e-12
1.35563e-11
2.46535e-11
4.16978e-11
7.3042e-12
4.86495e-12
1.01389e-11
1.49329e-11
3.57442e-11
3.85156e-12
1.79377e-11
8.93027e-12
2.31125e-11
1.2297e-11
5.67731e-06
1.82141e-06
1.52047e-06
4.98187e-06
8.40152e-06
8.6183e-07
3.01191e-06
3.16345e-06
6.048e-06
3.74066e-06
2.96453e-06
2.47963e-06
4.3164e-06
2.86861e-06
2.04253e-06
1.59354e-06
1.90772e-05
1.0681e-05
4.50083e-06
6.40549e-06
1.59652e-05
9.08204e-06
4.81675e-06
3.92564e-06
1.04398e-05
0.499893
0.499456
0.499165
0.499859
0.499934
0.49943
0.499445
0.499695
0.499685
0.499528
0.4997
0.49953
0.499915
0.499822
0.499901
0.499877
0.49977
0.499636
0.499502
0.499848
0.00596371
0.00506305
0.00515657
0.00384319
0.0046077
0.00526011
0.00451477
0.00399065
0.00462305
0.00352025
0.00287802
0.00344797
5.13936e-13
8.46156e-13
1.5246e-13
1.41788e-13
7.51319e-14
9.07108e-13
8.47104e-13
5.32458e-13
2.78211e-13
2.96829e-13
9.34631e-14
1.47653e-13
1.75377e-13
2.50969e-13
3.2752e-13
3.1249e-13
4.68767e-13
5.84726e-13
1.71856e-16
5.57894e-17
1.07631e-16
3.02791e-17
9.14189e-17
8.46196e-16
4.21487e-16
5.00621e-16
2.13846e-16
5.02252e-17
9.8567e-17
2.2354e-16
1.77549e-15
7.9233e-16
3.89447e-16
2.09592e-16
7.9309e-16
3.5098e-16
8.90383e-17
4.24039e-17
9.03779e-17
7.58511e-17
2.21679e-17
1.00544e-16
2.60294e-17
1.21794e-17
2.37238e-16
5.75739e-17
1.22834e-16
6.24856e-17
2.68087e-17
1.77123e-17
5.43951e-17
2.78243e-16
1.457e-16
3.73094e-14
5.07588e-14
5.82417e-14
2.0246e-13
9.41283e-14
7.04159e-14
1.34865e-13
1.43556e-13
3.41882e-14
4.23365e-06
3.2488e-06
1.7692e-06
3.13128e-06
1.09186e-06
1.43181e-06
1.02397e-06
1.24794e-06
1.97596e-06
2.39813e-06
8.25997e-07
1.64235e-06
2.01714e-13
1.13727e-13
1.7664e-13
1.45469e-13
2.94347e-13
3.86788e-13
2.20741e-13
2.88909e-13
6.19526e-13
5.54863e-13
8.35702e-13
3.523e-13
3.34233e-13
4.82808e-13
5.42889e-13
6.21397e-13
0.480508
0.473429
0.484668
0.475588
0.475546
0.468841
0.473291
0.47764
0.484254
0.486942
2.96633e-08
1.83712e-08
5.90691e-08
5.44946e-08
4.69039e-08
2.95248e-08
6.7983e-08
6.67212e-08
8.0219e-09
4.15311e-08
2.08427e-08
1.89048e-08
3.30994e-08
3.08586e-08
1.83526e-08
1.10802e-08
1.23861e-08
4.91882e-08
1.47198e-11
2.00704e-11
7.88148e-12
2.56967e-11
4.44945e-11
1.26347e-11
1.42814e-11
7.94427e-12
2.98938e-11
8.94345e-11
5.34346e-11
3.68752e-11
2.28142e-11
6.19834e-11
1.8334e-11
2.71216e-11
4.75401e-11
2.88964e-11
0.22807
0.21087
0.191222
0.208324
0.181271
0.167418
0.251928
0.228067
0.192296
0.234026
0.201739
0.187724
0.208911
0.183327
0.5
0.499998
0.499999
0.499997
0.5
0.499999
0.499999
0.499999
0.5
0.5
0.5
0.5
0.499997
0.499996
0.499999
0.5
0.5
0.5
0.499999
0.499999
0.00562551
0.00420146
0.00597087
0.00923265
0.00339452
0.00288769
0.00286619
0.00173063
0.0113908
0.00670194
0.00417381
0.00602728
0.00594659
0.00229968
0.00834828
0.00820558
0.00807233
0.0119564
0.0116593
0.0479544
0.0580262
0.0459764
0.052735
0.020237
0.0205158
0.0304854
0.0253043
0.0427237
0.0405536
0.029121
0.0500571
0.0553309
0.025549
0.0234823
0.0274316
0.03775
0.0337259
0.04471
0.03239
1.112e-17
3.1419e-17
7.11849e-18
6.88827e-17
2.03919e-17
1.2073e-17
1.80383e-17
1.64956e-17
4.29776e-17
2.17255e-17
5.01519e-18
1.39389e-17
1.36657e-17
4.3308e-17
3.17823e-17
2.82916e-17
2.27912e-16
1.09273e-16
8.14384e-17
2.85455e-09
2.02105e-09
1.25609e-09
7.78596e-10
1.64241e-09
1.87054e-09
5.77137e-09
4.41615e-09
2.91444e-09
8.37077e-09
5.59966e-09
1.58202e-09
2.0866e-09
3.284e-09
1.21766e-09
1.26554e-09
0.5
0.5
0.5
0.5
0.5
0.5
0.5
0.5
0.5
0.5
0.5
0.5
0.5
0.5
0.5
0.5
0.5
0.5
0.5
0.5
0.0541276
0.0542791
0.0656757
0.0590331
0.0535479
0.0464189
0.0481819
0.0444126
0.0457706
0.0555063
0.0501801
0.0393192
0.0413178
0.0385905
0.0330946
0.0311667
0.0425507
0.0360152
0.0357201
0.0460748
0.5
0.5
0.5
0.5
0.5
0.5
0.5
0.5
0.5
0.5
0.5
0.5
0.5
0.5
0.5
0.5
0.5
1.17961e-13
9.36741e-14
2.30518e-13
1.33709e-13
2.08049e-13
1.34618e-13
8.38884e-14
2.70327e-13
7.58556e-14
1.70517e-13
9.88578e-14
6.43436e-14
0.499998
0.499998
0.5
0.5
0.5
0.499999
0.499996
0.499996
0.5
0.5
0.5
0.5
0.5
0.5
0.499998
0.5
0.5
0.5
0.5
0.5
0.5
0.4815
0.475864
0.478855
0.483844
0.486604
0.47254
0.479835
0.491268
0.486811
0.489605
0.485168
0.484102
0.477577
0.476498
0.482329
0.487376
0.488254
0.481512
0.419953
0.407188
0.437763
0.425214
0.416419
0.433855
0.447924
0.453189
0.432687
0.444158
0.464055
0.453211
0.454965
0.442615
0.439241
0.477999
0.486386
0.487492
0.478602
0.476306
0.494714
0.493091
0.49242
0.482106
0.486527
0.490211
0.489988
0.494693
0.493481
0.0097132
0.0125526
0.00780685
0.00676502
0.008533
0.00690419
0.015117
0.0114412
0.00822779
0.00960211
0.0105685
0.0146913
0.0163323
0.0123281
0.0137661
0.0113399
0.498876
0.498906
0.49934
0.498949
0.498395
0.49911
0.498875
0.498446
0.499401
0.499225
0.499329
0.499527
0.498962
0.499761
0.499636
0.499633
0.499357
0.5
0.5
0.5
0.5
0.5
0.5
0.5
0.5
0.5
0.5
0.5
0.5
0.5
0.5
0.5
0.5
0.5
0.0659569
0.0746612
0.0688175
0.0759267
0.0859075
0.0491826
0.0442347
0.0689481
0.0411113
0.041291
0.056171
0.0540937
0.0481965
0.0771367
3.08387e-09
9.32618e-10
9.95355e-11
1.05415e-09
0.364118
0.373063
0.411725
0.396105
0.383241
0.353385
0.347177
0.399269
0.413459
0.395134
0.388485
0.401512
0.366377
0.350856
0.33296
0.386423
0.350915
0.370408
0.342121
0.377468
0.370385
0.36308
5.7461e-14
7.04561e-14
5.95818e-14
2.04708e-14
1.19265e-14
3.05684e-14
1.09488e-14
4.30873e-15
2.74277e-14
2.40118e-14
8.0183e-15
5.13333e-15
3.08653e-15
1.18533e-15
3.04113e-15
8.00828e-15
2.15983e-14
5.40542e-14
1.05154e-14
1.11061e-14
4.48499e-14
2.70445e-14
1.24233e-14
1.88355e-14
3.95464e-14
3.49975e-14
1.58889e-14
4.31924e-15
5.48184e-15
1.95801e-15
1.36362e-14
6.1458e-15
1.58141e-14
2.1853e-14
1.07345e-14
8.267e-15
2.91264e-15
5.58305e-15
7.79455e-13
1.11432e-12
2.39174e-12
1.19914e-12
3.02775e-12
6.01172e-12
2.01501e-12
3.56772e-12
4.647e-13
4.81819e-12
2.82996e-12
4.15036e-12
1.60177e-12
1.46114e-12
8.50567e-13
5.32399e-12
4.08119e-12
2.3046e-12
2.43445e-12
4.74435e-07
2.66415e-07
1.28101e-07
1.53318e-07
2.16672e-07
1.36026e-07
3.29746e-07
7.12635e-07
6.97396e-08
8.3801e-08
6.433e-08
1.40418e-07
9.35727e-08
3.13639e-07
1.58994e-07
5.87618e-07
2.55052e-07
1.26645e-07
5.94123e-08
3.11918e-08
7.2391e-08
3.68969e-08
0.0874933
0.0689357
0.0577112
0.0676469
0.0784433
0.0939294
0.0942862
0.0747603
0.0656111
0.0521358
0.0578581
0.0678131
0.0595102
0.0651451
0.0835335
0.0852065
0.074374
0.0552819
0.0718771
1.76746e-06
1.13184e-06
9.82384e-07
1.37184e-06
1.97757e-06
1.24778e-06
1.79872e-06
2.94272e-06
1.44972e-06
2.80069e-06
1.6897e-06
4.11795e-07
6.86248e-07
6.25145e-07
9.47288e-07
5.69593e-07
8.92373e-07
0.00666036
0.00536207
0.0049909
0.00551847
0.0053531
0.00438818
0.00355468
0.00432953
0.0043056
0.00289886
0.00451028
0.0039917
0.00283018
0.00360816
1.17511e-15
2.74938e-15
3.61533e-15
5.46908e-15
9.46429e-15
9.28688e-15
1.83677e-15
3.98621e-15
1.78987e-14
3.55544e-14
3.61197e-14
3.0387e-15
8.45777e-15
1.47681e-14
1.45752e-14
3.39495e-15
7.12417e-15
1.32878e-21
2.7691e-21
2.52909e-21
1.41117e-21
1.96604e-21
4.19808e-21
8.2281e-22
1.51207e-21
5.50264e-21
2.75656e-21
6.90346e-21
5.50304e-21
5.39851e-21
8.68801e-21
6.65813e-22
2.80865e-21
1.53308e-20
1.16928e-20
1.7281e-20
4.11496e-21
2.17509e-21
1.35093e-21
2.0681e-21
8.18907e-22
1.10329e-21
4.77226e-22
1.41713e-21
1.33151e-21
8.4164e-22
2.90455e-21
4.82083e-21
1.98349e-21
3.43362e-21
4.80464e-21
8.44609e-21
8.16174e-21
1.01523e-20
1.61991e-20
2.45819e-21
5.18967e-21
4.77088e-14
1.16785e-13
1.12891e-12
1.00194e-12
1.78626e-12
1.93308e-12
9.72782e-14
1.85087e-13
2.45703e-13
6.98152e-14
2.09722e-13
6.86559e-13
9.7855e-13
1.39409e-12
1.71479e-13
4.13618e-13
2.00635e-13
0.0701886
0.0614851
0.0593342
0.0656691
0.0600822
0.0565422
0.0507557
0.0735285
0.0670491
0.056209
3.83255e-10
3.80719e-10
1.56451e-09
9.46942e-10
1.44039e-09
1.18031e-09
1.23251e-09
1.68681e-09
2.75554e-09
1.64106e-09
3.50443e-09
3.10981e-09
2.06614e-09
5.94355e-10
5.50479e-10
8.1854e-10
1.93713e-09
1.10564e-09
1.19546e-07
6.93127e-08
7.60192e-08
4.96733e-08
1.82092e-07
1.08092e-07
3.40565e-08
4.86216e-08
9.59672e-08
6.43753e-08
7.4757e-08
1.20014e-07
1.18348e-07
4.65921e-20
2.21427e-20
6.56565e-20
3.18058e-20
3.18475e-20
1.48551e-19
5.32841e-20
2.45181e-20
1.7043e-20
3.59924e-20
1.07349e-19
3.73345e-20
1.09665e-20
1.75066e-20
9.19564e-09
1.07683e-08
5.28528e-09
6.54495e-09
5.43154e-09
3.97416e-09
3.55763e-09
4.65212e-09
2.73267e-09
1.51682e-09
1.72284e-09
2.87172e-09
1.17728e-09
1.73613e-09
2.20027e-09
3.70407e-21
1.44571e-20
3.3674e-21
1.11787e-21
7.10568e-18
7.14866e-19
1.14141e-17
9.9023e-18
2.29186e-18
1.03098e-17
1.22217e-16
3.01911e-17
6.01015e-19
7.15893e-17
1.57851e-17
6.30216e-18
3.01893e-16
9.31046e-18
0.5
0.5
0.5
0.5
0.5
0.5
0.5
0.5
0.5
0.5
0.00016615
0.000152978
9.8543e-05
0.000104083
0.000250707
0.000183481
0.000239005
0.00035013
0.000297961
0.000223352
0.000234519
8.2355e-05
7.21256e-05
0.000173169
0.000159828
0.000214493
0.000149464
0.000114584
9.13724e-05
0.000105591
7.90579e-05
0.000140451
4.07186e-19
3.75106e-19
1.92509e-18
1.2569e-18
1.93699e-19
1.4901e-19
1.26324e-18
2.89478e-18
5.76495e-18
3.95393e-19
1.63231e-19
2.7143e-19
1.62128e-18
1.28645e-18
2.55742e-18
7.10101e-19
9.23493e-19
2.26931e-19
0.499663
0.499605
0.499342
0.499617
0.499358
0.499072
0.499357
0.499104
0.499043
0.498808
0.49863
0.499281
0.499598
0.499335
0.498959
0.497882
0.498128
0.4975
0.498861
0.0257443
0.0198
0.039714
0.0292298
0.0215198
0.0174835
0.00781014
0.00460847
0.00603539
0.00285632
0.0147876
0.0139717
0.0291922
0.0218535
0.00259939
0.00292279
0.00463458
0.0118281
0.5
0.5
0.5
0.5
0.5
0.5
0.5
0.5
0.5
0.5
0.5
0.5
0.5
0.5
0.5
0.5
0.360026
0.404853
0.394802
0.376113
0.386489
0.371054
0.379967
0.367199
0.394331
0.386044
0.364823
0.372056
0.355314
0.456577
0.445794
0.462227
0.467269
0.454305
0.449867
0.475742
0.468418
0.47654
0.472019
0.477527
0.471264
0.461052
0.469751
0.46449
0.40511
0.389
0.390948
0.37944
0.416552
0.405136
0.392564
0.375173
0.426416
0.416146
0.41747
0.390427
0.415733
0.426174
0.402349
0.406026
0.499987
0.499981
0.499982
0.499971
0.49997
0.499977
0.499945
0.499933
0.499958
0.49999
0.499996
0.499997
0.499995
0.499972
0.499964
0.499965
0.499992
0.499984
0.49998
0.499982
0.0173855
0.0114033
0.0179248
0.0244208
0.017908
0.0443113
0.0160465
0.0360996
0.04248
0.0545106
0.0371295
0.0272543
0.0412668
0.0227238
0.0160014
0.0299026
0.021217
0.00880714
0.0460479
0.0205154
0.0445162
0.0263961
0.0115766
0.0334418
0.0175363
0.080877
0.024927
0.0314504
0.0846977
0.101861
0.109676
0.0732321
0.0679523
0.499999
0.499998
0.499998
0.499993
0.499999
0.499999
0.499994
0.499991
0.499998
0.499999
0.499969
0.49997
0.499969
0.499989
0.499996
1.51367e-10
1.40281e-10
2.75587e-10
4.46495e-10
3.10093e-10
1.68096e-10
9.21977e-11
1.03e-10
9.9048e-11
0.499922
0.499957
0.499897
0.499873
0.499956
0.499723
0.499691
0.499899
0.499626
0.499369
0.499451
0.499513
0.499688
0.499814
0.499788
0.49963
0.499719
0.499825
0.499861
0.499933
0.499762
0.499864
0.141738
0.145705
0.156514
0.126396
0.129809
0.144986
0.131196
0.13712
0.152563
0.125727
0.131831
0.110547
0.113935
0.114531
0.0954252
0.101951
0.115245
0.130834
0.103079
0.11353
0.428386
0.423274
0.410685
0.411632
0.422782
0.368443
0.362475
0.40058
0.38938
0.416725
0.395225
0.373924
0.385533
0.377364
0.36516
0.405967
0.397328
0.41237
0.351086
0.398247
0.381504
0.384471
0.380686
0.328697
0.341685
0.361006
9.73556e-06
1.24272e-05
9.80421e-06
6.91946e-06
3.40213e-05
2.47684e-05
1.67754e-05
2.38765e-05
1.58343e-05
4.10827e-05
3.25041e-05
6.06457e-06
8.49049e-06
6.97679e-06
7.96697e-06
2.17869e-05
7.4114e-06
4.89427e-06
1.25993e-05
1.24124e-05
1.95697e-05
3.08071e-05
2.44723e-05
1.53081e-05
1.67958e-05
1.18932e-05
0.00734349
0.00634238
0.00924157
0.0073331
0.00744402
0.00884148
0.0110001
0.0064422
0.00887651
0.00561373
0.00691339
0.00595134
0.00450056
0.00872643
0.0108539
0.0103825
0.0117078
0.00743136
0.246617
0.23695
0.217998
0.226596
0.229057
0.207045
0.205533
0.220187
0.235155
0.213218
0.198966
0.206571
0.220106
0.492279
0.495563
0.492297
0.491372
0.493539
0.496972
0.498129
0.496646
0.495711
0.495574
0.49467
0.496176
0.495706
1.21685e-08
8.98848e-09
9.66886e-09
7.94019e-09
6.13577e-09
7.35878e-09
4.59379e-09
3.66753e-09
3.66276e-09
9.66871e-09
4.90399e-09
4.60754e-09
6.7373e-09
8.2147e-09
5.42487e-09
6.85731e-09
5.64125e-09
3.70498e-09
5.37488e-09
4.00018e-09
1.12989e-08
9.70361e-09
7.08347e-09
9.5617e-09
2.08707e-08
1.9018e-08
1.26147e-08
1.49766e-08
5.40474e-08
6.71441e-08
9.62646e-08
8.72501e-08
1.36506e-07
1.05479e-07
1.98471e-07
1.45314e-07
2.94938e-07
1.8199e-07
2.4557e-07
1.50837e-07
1.28561e-07
1.53549e-07
2.62146e-07
2.38835e-07
1.43988e-06
1.38993e-06
2.32659e-07
2.65972e-07
8.61571e-07
9.70298e-07
3.90156e-07
4.00854e-07
4.84688e-07
7.44283e-07
1.13538e-06
1.32795e-06
6.39344e-07
7.23557e-07
2.31991e-18
5.08372e-18
5.78057e-17
8.5158e-17
1.43062e-17
1.84065e-16
1.79182e-17
3.13115e-18
4.02679e-17
8.46804e-17
3.30162e-18
0.393243
0.394985
0.406974
0.436662
0.450073
0.419944
0.436468
0.420849
0.432312
0.439399
0.411081
0.414726
0.421174
0.135397
0.148049
0.128412
0.136521
0.137968
0.1789
0.151766
0.154922
0.178346
0.153646
0.19627
0.171767
0.183654
0.196167
0.167077
0.21961
0.183101
0.19032
0.190149
0.222209
0.166209
0.218972
0.395387
0.408941
0.394879
0.402222
0.416619
0.409969
0.424951
0.420517
0.442756
0.424896
0.437123
0.346921
0.366963
0.337035
0.352946
0.365902
0.384793
0.373197
0.387197
0.434137
0.427751
0.392859
0.382995
0.399831
0.417441
0.41052
0.409546
0.410624
0.414462
0.405542
0.5
0.5
0.5
0.5
0.5
0.5
0.5
0.5
0.5
0.5
0.5
0.5
0.5
0.0912446
0.101331
0.101029
0.0924128
0.111113
0.118088
0.126343
0.125608
0.132476
0.107592
0.116421
0.09173
0.0842209
0.108176
0.13219
0.0862367
0.0963606
0.0788432
0.0984297
0.0908397
0.106397
2.89846e-06
3.85459e-06
3.96961e-06
6.07895e-06
3.47141e-06
2.41796e-06
7.06996e-06
7.43563e-06
8.506e-06
5.61763e-06
1.20138e-05
1.17979e-05
3.68841e-06
5.20275e-06
4.69805e-06
5.91895e-06
4.97167e-06
7.9383e-06
3.33494e-06
1.22743e-06
1.48133e-06
1.03352e-06
2.28072e-06
1.17932e-06
4.30745e-06
2.29575e-06
8.40195e-07
3.31108e-06
3.53747e-06
1.46024e-06
2.96747e-06
2.02721e-06
7.32554e-07
5.21771e-07
1.5274e-06
7.84229e-07
2.57857e-07
2.18959e-06
1.05667e-06
1.14327e-06
8.99074e-07
1.3481e-06
5.05311e-07
4.92389e-07
7.1593e-07
1.93212e-15
2.7725e-15
5.32087e-15
3.49393e-15
9.18968e-15
0.0131281
0.0105177
0.0165166
0.0208544
0.015692
0.0171045
0.011942
0.00668834
0.00797871
0.0132452
0.00949532
0.00820399
0.0173861
0.0132853
0.0215019
4.33551e-20
9.16381e-20
7.91365e-18
2.7429e-18
4.71604e-20
1.20228e-17
5.65807e-18
1.62814e-20
1.83522e-20
2.33882e-18
7.49826e-18
2.67513e-19
1.02764e-18
2.83439e-18
1.61615e-18
6.20213e-19
2.11809e-19
4.26144e-19
0.164032
0.155668
0.143859
0.150948
0.105322
0.0977682
0.114277
0.115272
0.146022
0.146911
0.0943482
0.0889981
0.0717148
0.0767708
0.127987
0.142286
0.125363
0.0875405
0.087494
0.127023
0.00197473
0.00258048
0.00242445
0.00230481
0.00316729
0.00285359
0.00172284
0.00147129
0.00191363
0.00307196
0.00248036
0.00314834
0.00239017
0.00215568
0.0484255
0.0568737
0.0285236
0.0314656
0.0559866
0.0451234
0.0384978
0.0478384
0.0552538
0.0343277
0.03786
0.0325266
0.0431412
0.039735
0.0497112
0.0379366
0.0515583
0.0440969
0.00177266
0.00195847
0.00145509
0.000667469
0.000718952
0.000952336
0.00289492
0.00588053
0.00121853
0.0021167
0.00191646
0.00192173
0.00248558
0.00240799
0.00294357
0.00435221
0.00121375
0.00160453
0.00275638
0.00296196
0.00337384
0.0037613
0.0787784
0.0694308
0.0582528
0.0520346
0.0793102
0.0624555
0.0714726
0.102043
0.0904136
0.0692957
0.0625032
0.0614303
0.0697946
0.0902165
0.0807372
0.0531318
0.0792884
0.0692808
0.054233
0.0614111
0.315713
0.299565
0.309124
0.36605
0.261161
0.324948
0.279253
0.238578
0.259782
0.293024
0.277798
0.307608
0.312679
0.30458
0.286064
2.3639e-13
8.62213e-14
1.55982e-13
6.07333e-13
1.49386e-12
5.9751e-13
5.17041e-13
4.22822e-12
0.00459252
0.00423387
0.00702782
0.00756489
0.00606462
0.00563417
0.00700368
0.00504075
0.00546556
0.0047811
0.00387995
0.00402931
0.00671125
0.00844053
0.00915902
0.00730988
0.00586611
0.00730734
0.00610764
0.00935061
0.00778613
0.010694
0.00839991
0.0106756
0.00638024
0.00707701
0.00516081
0.00910728
0.011434
0.00950677
0.00384223
0.00423163
0.00277473
0.00328571
0.0053941
0.00484747
0.00303964
0.00395671
0.00371226
0.00333936
0.00409037
0.00532145
0.0052059
0.00323445
0.00318834
0.00518645
0.00491468
0.00399605
3.24891e-18
1.43462e-18
2.06373e-18
3.79244e-18
4.45442e-18
1.17879e-17
7.22247e-18
3.20616e-18
6.50486e-18
8.35606e-18
7.84926e-18
1.52536e-17
1.95752e-17
3.07058e-17
7.59696e-18
1.77746e-17
2.81765e-17
1.66266e-17
7.74253e-17
5.42234e-17
1.71918e-17
3.46891e-17
0.5
0.5
0.5
0.5
0.5
0.5
0.5
0.5
0.5
0.5
0.5
0.5
0.5
0.5
0.5
0.5
5.53442e-07
3.20955e-07
1.08543e-07
2.63047e-07
9.67623e-07
1.51311e-06
2.36453e-06
4.50181e-07
1.47902e-06
2.64468e-06
4.32589e-06
2.50066e-06
4.77111e-06
9.25443e-07
1.23189e-06
7.24952e-06
6.90307e-06
2.87417e-06
5.11439e-13
1.28927e-13
6.2988e-14
3.75693e-13
1.87455e-13
3.76129e-13
1.14654e-13
5.47868e-14
2.26002e-13
1.21134e-13
3.51408e-13
7.20064e-13
1.03515e-12
1.10408e-12
1.9889e-13
4.62129e-13
0.178292
0.190729
0.202464
0.185799
0.163091
0.192667
0.177478
0.195737
0.208176
0.177019
0.181144
0.200789
0.18404
0.208028
0.166629
0.163988
0.165013
0.149559
0.147645
0.15962
0.0710863
0.0614365
0.0473229
0.0467362
0.0766093
0.0818798
0.0998777
0.0746838
0.0738127
0.0793767
0.0948694
0.0829743
0.105922
0.0933143
0.107457
0.112275
4.12913e-05
3.76909e-05
8.67419e-05
8.3309e-05
5.16068e-05
7.84242e-05
0.000111387
5.69943e-05
8.08627e-05
6.0881e-05
4.77442e-05
9.52547e-05
6.33106e-15
3.81131e-15
6.18185e-15
2.15156e-15
3.20925e-15
3.91343e-15
2.95917e-15
7.78784e-15
1.34321e-15
1.72026e-15
1.87342e-15