/*--------------------------------*- C++ -*----------------------------------*\
  =========                 |
  \\      /  F ield         | OpenFOAM: The Open Source CFD Toolbox
   \\    /   O peration     | Website:  https://openfoam.org
    \\  /    A nd           | Version:  10
     \\/     M anipulation  |
\*---------------------------------------------------------------------------*/
FoamFile
{
    format      ascii;
    class       volScalarField;
    location    "3";
    object      eff_dif;
}
// * * * * * * * * * * * * * * * * * * * * * * * * * * * * * * * * * * * * * //

dimensions      [0 2 -1 0 0 0 0];

internalField   nonuniform List<scalar> 
75457
(
-0.0454046
-0.0407416
-0.0377976
-0.0339904
-0.028427
-0.0310165
-0.040538
-0.0413177
-0.0280872
-0.0218845
-0.0257828
-0.0287991
-0.0286652
-0.0257459
-0.00234138
-0.0030544
-0.00351205
-0.00273231
-0.00363277
-0.00339457
-0.00245755
-0.00353116
-0.0030133
-0.00339404
-0.00346926
-0.00408066
-0.00349188
-0.000256958
-0.000306673
0.000187498
0.000255893
0.00015819
8.53312e-05
3.51101e-05
0.000207297
-0.000358314
-0.000260857
-0.000196267
-0.000555534
-2.75393e-07
-0.000284354
-5.57067e-05
-0.000313502
-0.00972444
-0.00861338
-0.00864065
-0.00891881
-0.00933227
-0.00479167
-0.00538282
-0.00569128
-0.00522406
-0.0050745
-0.0052157
-0.00574684
-0.00580429
-0.00539417
-0.00564083
-0.00516739
-0.00534478
-0.00513885
-0.0051382
0.026356
0.0266359
0.0263775
0.0267213
0.0269795
0.0269927
0.0266365
0.026676
0.0269662
0.0267467
0.0264525
0.0267399
0.0267271
0.0263897
0.0266145
-0.0072143
-0.00798151
-0.00773978
-0.0082528
-0.011824
-0.00504473
-0.00538316
-0.0102811
-0.0102878
-0.0105901
-0.00998675
-0.00328443
-0.00692257
-0.0052113
-0.00594092
-0.0091677
-0.00786698
-0.00824726
-0.0084208
-0.00840982
-0.00864726
-0.00849979
-0.00827198
-0.00914322
-0.00861718
0.0273416
0.0272314
0.0274913
0.0275077
0.0273741
0.0272257
0.0271453
0.0275959
0.0275978
0.0272121
0.0272234
0.0179192
0.0185863
0.0210357
0.0206077
0.017974
0.0195666
0.0195901
0.0190517
0.0194193
0.0211118
0.020903
0.0214391
0.0219721
0.0207236
0.0201583
0.0189583
0.0213856
0.0203752
0.00997062
0.00993252
0.00941118
0.0102534
0.00988267
0.0113102
0.0110175
0.0109008
0.0108997
0.00475003
0.00433928
0.00484312
0.00445823
0.00395304
0.00439487
0.00442241
0.00357044
-0.00796889
-0.00796004
-0.00743033
-0.0075627
-0.00788465
-0.007619
-0.00744814
-0.00701797
-0.00559827
-0.00571835
-0.00688479
-0.00665584
-0.00636226
-0.00684134
-0.00589585
0.012255
0.013854
0.0140945
0.0134435
0.0138626
0.0101588
0.0115612
0.0131056
0.012106
0.0130804
0.01043
0.0091075
0.0097114
-0.0104681
-0.0108819
-0.0107161
-0.0109076
-0.0106669
-0.0107986
-0.0103262
-0.0110745
-0.0108743
-0.0110712
-0.0110347
-0.011033
-0.0109268
-0.0109123
-0.0105004
-0.00890776
-0.0109693
-0.00939869
-0.00920164
-0.0109711
0.00698844
0.00770368
0.00636906
0.00724428
0.00552759
0.00626901
0.00859465
0.00830136
0.00747961
0.00491008
0.00485328
-0.00960996
-0.0094347
-0.00971582
-0.00964241
-0.00974001
-0.0096846
-0.00945033
-0.00927663
-0.00870534
-0.00969199
-0.00954169
-0.00920785
-0.00959338
-0.0090102
0.00265142
0.00186068
0.00219506
0.0006997
0.00119924
0.00178311
0.00158691
0.00277032
0.0023947
0.00161083
0.00102726
0.000508752
0.00247939
0.00101084
-0.00850961
-0.00858593
-0.00779607
-0.00766567
-0.00812069
-0.00796164
-0.00851336
-0.0082547
-0.00866784
-0.00766754
-0.00796014
-0.00741808
-0.00813792
-0.0085069
-0.00808953
-0.00791658
-0.00816678
-0.0127476
-0.0126575
-0.0121647
-0.0124671
-0.013643
-0.0122726
-0.0126556
-0.0118426
-0.0120013
-0.0128646
-0.0113954
-0.0129038
-0.00666574
-0.00681253
-0.00679009
-0.00673175
-0.00652597
-0.00577563
-0.00611513
-0.00604543
-0.00583588
-0.0059874
-0.00641625
-0.00622993
-0.00605671
-0.00561345
-0.00552734
-0.00567018
-0.00546013
-0.0054518
-0.00529196
-0.0051509
-0.00518651
-0.00516564
-0.00541509
-0.00565424
-0.00551915
-0.00509824
-0.00535178
-0.00534483
-0.000125217
-9.45748e-05
-0.00013314
-0.000177188
-9.51268e-05
7.03303e-05
-0.000273035
-0.000149711
1.4699e-05
6.53713e-05
0.000823915
0.000581544
0.000763314
0.0012775
0.00191992
0.00124912
0.00103454
0.001102
0.000811114
0.000900756
-5.45485e-05
0.000526023
-0.0054021
-0.0073274
-0.000919099
-0.00232214
-0.00297334
-0.00573342
-0.0068189
-0.00434102
-0.00732127
-0.00690538
-0.00556498
-0.00691435
-0.00696324
-0.00702636
-0.00692945
-0.00690311
-0.00688775
-0.00687346
-0.00692605
-0.00720514
-0.00715342
-0.007227
-0.00663461
-0.00693242
-0.00700372
-0.00703386
-0.00694909
-0.00702535
-0.00634499
-0.00618812
-0.00647749
-0.00708819
-0.0125245
-0.0115579
-0.0116339
-0.00834195
-0.00848343
-0.00815044
-0.0101165
-0.00240129
-0.00303019
-0.00357079
-0.00350593
-0.00306667
-0.00312607
-0.0024827
-0.00325614
-0.00352473
-0.00283522
-0.00304754
-0.000139784
-0.000132884
-0.000211305
-0.000314019
-0.000124406
-0.000126299
-0.000202194
-8.58007e-05
-0.000282365
-0.00031826
-0.000351085
-0.000151948
-0.000226015
-0.000506713
-0.000496885
-0.00643227
-0.00336557
-0.00724115
-0.00579355
-0.00590516
-0.00763205
-0.00811746
-0.00776643
-0.00815906
-0.00818634
-0.0077714
-0.00855921
0.0451734
0.049968
0.0385924
0.0412397
0.0440017
0.0460087
0.0457518
0.0485868
0.0410569
0.0454825
0.0438285
0.0448036
0.0407892
0.0452545
0.0396462
0.0410446
0.042966
0.0380578
0.0299383
0.0294912
0.0301986
0.0308947
0.031814
0.0327431
0.0301865
0.030826
0.0332265
0.0366353
0.0334159
0.0336786
0.0353972
0.0210994
0.0183683
0.0159672
0.0176139
0.0220363
0.0187487
0.0173688
0.01881
0.0183281
0.0164645
0.0237033
0.0236779
0.0169934
0.0185507
0.015943
0.0220753
0.0241591
0.0242458
0.0202979
0.0203096
0.02088
0.0222326
-0.0112006
-0.0117508
-0.0119664
-0.0118737
-0.0119897
-0.0114071
-0.0116445
-0.0116869
-0.0115527
-0.0113096
-0.0118644
-0.0115335
-0.0117534
-0.0114701
-0.0118304
-0.0114965
-0.0371941
-0.0420686
-0.0242848
-0.0299839
-0.0228667
-0.0309867
-0.0285965
-0.0263042
-0.022461
-0.0285925
-0.0472764
-0.0417151
-0.0267333
-0.0369953
-0.0238747
-0.0245786
-0.00024344
-0.00036242
-0.000209124
0.000511972
0.000756581
0.00134932
-0.000572714
-0.000829502
0.000637851
0.000629363
0.00136945
0.00103832
0.000857702
0.000783557
0.000602223
-4.14993e-07
-0.000617631
4.27585e-05
0.0291222
0.0332649
0.0318428
0.028358
0.0296784
0.0324525
0.0359241
0.0350093
0.030017
0.0359468
0.0376652
0.0358945
0.0320397
0.0288246
0.0296192
0.0305733
0.0223631
0.0217432
0.022249
0.0220063
0.0211986
0.0229425
0.0235172
0.0229118
0.0222708
0.0232499
0.0226919
0.0218706
0.0227169
0.0211568
0.0218319
0.0233482
0.0238227
0.00854251
0.00837369
0.00813942
0.00848674
0.0084983
0.0085854
0.00861586
0.00863155
0.00864453
0.00849709
0.00823222
0.00836806
0.0087441
0.00841689
0.00861386
0.00786621
0.00787707
-0.0036381
-0.00440657
-0.00572455
-0.00508024
-0.00436307
-0.00355257
-0.00431531
-0.00383517
-0.00502563
-0.00496804
-0.00623518
-0.00570476
-0.00457005
-0.00570797
-0.00718409
-0.00502156
-0.00406534
-0.00542814
-0.00304393
-0.00339294
-0.00280803
-0.00284399
-0.00241684
-0.00241433
-0.00258503
-0.00276979
-0.00225154
-0.00241553
-0.00237991
-0.00207491
-0.00186317
-0.00229916
-0.00623623
-0.00582344
-0.00714483
-0.00761379
-0.00818291
-0.00786589
-0.00659227
-0.00632904
-0.00616868
-0.00805997
-0.0080425
-0.00741978
-0.00659621
-0.00622286
-0.00663825
-0.00718061
-0.00718144
-0.00744828
0.016448
0.0122226
0.013108
0.0198923
0.0161794
0.0103076
0.0132504
0.01352
0.00991344
0.0183766
0.0135023
0.0105227
-0.00921117
-0.00870601
-0.00836887
-0.00797274
-0.00819907
-0.00918586
-0.0064258
-0.00706952
-0.00917649
-0.00844574
-0.00856316
-0.00752572
-0.00746776
-0.0087441
-0.00839192
-0.00846303
-0.00415412
-0.00467397
-0.00359639
-0.00396675
-0.00505372
-0.00524197
-0.00428086
-0.00303663
-0.0033277
-0.00359691
-0.00336542
-0.00492508
-0.00500938
-0.00363743
-0.0032075
-0.00443995
0.00198708
0.00131116
0.000690505
0.00353224
0.00438934
0.0021698
0.00278407
-6.37725e-05
0.00133908
0.0019622
0.00342923
0.0024128
0.00339662
0.00410294
0.00380492
0.0010857
0.0011785
0.00231939
0.000658175
-0.000852735
-0.000612502
-0.000793904
-0.00150559
-0.00101552
-0.000872013
-0.00174174
-0.00164348
-0.000984822
-0.00133673
-0.00125661
-0.00191533
-0.00129357
-0.00115006
0.000430781
0.000369333
-0.000170529
-7.18758e-05
-0.000112814
-4.61555e-05
-0.000184467
1.6368e-05
-1.04699e-05
-0.000182917
-0.000308981
2.14112e-05
-0.000163262
-0.000153462
8.38299e-05
-0.000146754
-7.10315e-05
-0.000200469
-0.00507326
-0.00580402
-0.0049773
-0.00382725
-0.00451915
-0.00772048
-0.0053843
-0.00496763
-0.00519044
-0.00595598
-0.00735365
-0.00882888
-0.00897502
-0.0093847
-0.0097065
-0.0102342
-0.0102576
-0.0101975
-0.0123855
-0.00819579
-0.00777661
-0.00970974
-0.0109342
-0.0105247
-0.00976589
-0.0106818
-0.0107072
-0.0107339
-0.00855186
-0.00924431
-0.00980494
-0.00907872
-0.0113582
-0.0115119
-0.011155
-0.0114316
-0.0109923
-0.0114005
-0.0113164
-0.0112653
-0.0110489
-0.0109716
-0.0112924
-0.0110072
-0.011293
-0.0109182
-0.01114
-0.0111903
-0.0110021
-0.00856365
-0.00831147
-0.0111189
-0.0135979
-0.00937555
-0.00947478
-0.01267
-0.0134508
-0.0102522
-0.0128457
-0.0111672
-0.00139473
-0.0012372
-0.000633991
0.000818347
2.69029e-05
0.00108388
0.00109058
0.00189114
0.000341837
0.0002331
0.00117461
0.000363269
0.00257796
-0.00156126
-0.00132687
-0.00150936
-0.00167004
-0.00159372
-0.00122534
-0.00138894
-0.00120417
-0.00172483
-0.00169575
-0.00112153
-0.00109424
-0.00153663
-0.000929799
-0.00151667
-0.0013431
-0.00102768
-0.00134474
-0.00108629
-0.00137722
-0.00149045
-0.00105717
-0.00552132
-0.00558076
-0.00592543
-0.00566431
-0.00522739
-0.00415126
-0.00531194
-0.00437595
-0.00449503
-0.00372343
-0.00402968
-0.00436127
-0.00501063
-0.00425747
-0.00413756
-0.00514018
-0.00419215
-0.0036656
-0.00418373
-0.00362111
-0.00631778
-0.0063232
-0.00681113
-0.0068831
-0.00597076
-0.00596251
-0.00710028
-0.00672736
-0.00644585
-0.0056245
-0.00585784
-0.00580894
-0.00555293
-0.00584156
-0.00609369
-0.00637572
-0.00547325
-0.00552257
-0.00603531
-0.00644232
-0.0054736
-0.00569091
-0.00625472
-0.0077057
-0.00611521
-0.00706999
-0.00622684
-0.00765822
-0.00549414
-0.00530125
-0.00492979
-0.00586995
-0.00731865
-0.00728197
-0.0073318
-0.00597114
-0.00551322
-0.00695205
-0.0067813
-0.00544739
-0.00529737
-0.00663084
-0.00574468
-0.0066234
-0.00793125
-0.00718365
-0.00655567
-0.00618017
-0.00599059
-0.00718715
-0.00747531
-0.00844793
-0.00657349
0.0176477
0.0182403
0.0191784
0.0180869
0.0188928
0.0177345
0.0187667
0.0175766
0.0181189
0.0191223
-0.0104482
-0.0103323
-0.00973959
-0.00971961
-0.0106674
-0.0104801
-0.00989255
-0.0101003
-0.0104314
-0.00964729
-0.0101048
-0.00979099
-0.00976859
-0.0104288
-0.00984045
-0.0101694
-0.0104721
-0.0139054
-0.0137356
-0.015196
-0.0147404
-0.0144992
-0.0150795
-0.0133999
-0.0134653
-0.0132168
-0.0135048
-0.0148833
-0.0145547
-0.0127283
-0.0138858
-0.0140254
-0.0138173
-0.0140778
-0.0146527
-0.0131812
-0.0136029
0.00802268
0.00842134
0.00913066
0.00856006
0.00815777
0.00934035
0.00581484
0.00738838
0.0076628
0.00731119
0.00660434
0.00875579
0.00823882
0.00876053
0.00785924
0.00742745
-0.0170639
-0.0163096
-0.0144491
-0.0144638
-0.0138322
-0.0100693
-0.013241
-0.0137452
-0.0144235
-0.0136184
-0.0100146
-0.0124919
-0.014425
-0.0130036
-0.0138216
-0.0121365
-0.0113462
-0.0113567
-0.0122425
-0.0125393
-0.0129631
-0.0114181
-0.0107383
-0.0107841
-0.0115829
0.00818101
0.00726731
0.00693801
0.00698579
0.00702465
0.00567937
0.00525969
0.00473784
0.00484876
0.00533314
0.00539576
0.00455806
0.00614149
0.00536401
0.00696751
0.007097
0.00530786
0.00625065
0.00594179
-0.00999541
-0.00991546
-0.0115836
-0.0111988
-0.0122933
-0.00997086
-0.00965252
-0.0108734
-0.0108795
-0.0100062
-0.00988567
-0.0111795
-0.0111803
-0.0118202
-0.010381
-0.0106833
-0.0101961
-0.011429
-0.0105987
-0.00782504
-0.0100489
-0.00782055
-0.0064913
-0.00799687
-0.00828872
-0.00713073
-0.00564847
-0.00652213
-0.00858947
-0.00814891
-0.00694555
-0.00700106
-0.00640073
-0.0083099
-0.00858923
0.0167057
0.017237
0.0164954
0.0163428
0.0174144
0.018324
0.0182943
0.01731
0.017232
0.0180534
0.0182659
0.0173385
0.0183061
0.0187929
0.0195024
0.0189207
-0.00791689
-0.00835172
-0.00609886
-0.00526428
-0.0115057
-0.0132793
-0.00469878
-0.00535004
-0.010907
-0.0122826
-0.00869503
-0.00843426
-0.00821296
-0.0137677
-0.0128762
-0.00615466
-0.0119777
-0.00969056
-0.0116462
-0.0122466
0.0538379
0.0478803
0.0435513
0.0432243
0.0523226
0.0536167
0.0471232
0.0519346
0.0461191
0.0480985
0.0456818
0.0461272
0.042952
0.0428215
0.0485274
0.0165097
0.0149669
0.0199255
0.0208721
0.0187233
0.0159281
0.021552
0.0181088
0.0207291
0.0238579
0.0225536
0.0238903
0.0257698
0.0232168
-0.0144338
-0.0150421
-0.0145518
-0.015238
-0.0138137
-0.0140478
-0.0126609
-0.0116856
-0.0134741
-0.0133761
-0.0119739
-0.0116132
-0.0138669
-0.0125612
-0.012145
-0.0126939
-0.00458485
-0.00425219
-0.0042537
-0.00432266
-0.00423828
-0.0046009
-0.00444537
-0.00462777
-0.00474715
-0.00396867
-0.00402069
-0.00398755
-0.00461373
-0.00472349
-0.00396167
-0.00443567
-0.0043861
-0.0047189
-0.00451303
-0.0122546
-0.0122894
-0.0120958
-0.0129063
-0.0128703
-0.0131763
-0.0118271
-0.0130676
-0.012758
-0.0111421
-0.0119179
-0.0120065
-0.011854
-0.0116994
-0.0134301
-0.0130757
-0.0116356
-0.0121794
-0.0118748
-0.0119678
-0.011227
-0.0113334
-0.0121357
-0.0114775
-0.0113296
0.0258807
0.0250343
0.025081
0.025556
0.0257384
0.0253145
0.0250926
0.0251417
0.025845
0.0256269
0.0256978
0.0254352
0.0255646
0.0253321
0.0256627
0.0257213
0.0257145
0.0254983
0.0251479
0.0258034
-0.0081646
-0.00891075
-0.0081526
-0.00870657
-0.00821808
-0.00791093
-0.00800748
-0.00876833
-0.00786428
-0.00812599
-0.00831325
-0.00847192
-0.00343278
-0.00334032
-0.00296923
-0.00277
-0.0026502
-0.00343336
-0.00348351
-0.00366835
-0.00331442
-0.00283063
-0.00282611
-0.00299226
-0.00321211
-0.00271436
-0.00286441
-0.00306391
-0.00302242
-0.00299215
-0.00246044
-0.00233738
-0.00253016
-0.00228477
-0.00239369
-0.00269541
-0.00274904
-0.0029591
-0.00297784
-0.00231372
-0.00270172
-0.00242137
-0.00298547
-0.00287667
-0.0025399
-0.00237396
-0.00302932
-0.00272996
-0.00234901
-0.00163507
-0.00167883
-0.0018573
-0.00113603
-0.00148725
-0.00134298
-0.00115157
-0.00197259
-0.0015626
-0.00191968
-0.00175804
-0.00115416
-0.0010997
-0.0013668
-0.0020745
-0.00199111
-0.00704794
-0.00642041
-0.00732359
-0.00689105
-0.00559992
-0.00552086
-0.00600426
-0.00696209
-0.00752374
-0.0110952
-0.010856
-0.0108627
-0.0111892
-0.0110382
-0.0111686
-0.0109237
-0.0112752
-0.0111001
-0.0111178
-0.0111807
-0.0111785
-0.00309656
-0.0028216
-0.00309418
-0.00308715
-0.00303199
-0.0031861
-0.00324687
-0.00327904
-0.00335419
-0.00307467
-0.00363732
-0.00354486
-0.00359745
-0.00370417
-0.00350681
-0.00352695
0.0260267
0.0261958
0.0259869
0.0257213
0.025343
0.0253488
0.0249489
0.0248923
0.0251847
0.0257341
-0.00688416
-0.00681135
-0.00692563
-0.00675434
-0.00698665
-0.00696696
-0.00710881
-0.00706249
-0.00723561
-0.0071589
-0.00711221
-0.00695671
-0.00713402
-0.00730543
-0.00729183
-0.00717254
-0.00712577
-0.00704782
-0.0043849
-0.0048182
-0.0043887
-0.0045429
-0.00451087
-0.00444318
-0.0046967
-0.00444375
-0.00462034
-0.00494608
-0.00463147
-0.00495061
-0.00473333
-0.00490809
-0.00441974
-0.00474817
-0.00482257
-0.0046875
0.00547547
0.00493141
0.00437748
0.00524315
0.0034666
0.00301507
0.00580883
0.00533421
0.00417134
0.00545642
0.00453723
0.0037495
0.00439244
0.00442418
0.0262479
0.02615
0.0260186
0.0258517
0.0263012
0.0258838
0.0257042
0.0257394
0.0260495
0.0258626
0.0260496
0.0261737
0.025733
0.0257038
0.0255947
0.0256362
0.0260177
0.0258145
0.0259651
0.025728
0.0406226
0.0391282
0.031391
0.0349041
0.0251906
0.0289884
0.0163816
0.0307042
0.0301613
0.0274202
0.0330361
0.0247529
0.0360798
0.0412488
0.037227
0.0451083
0.0255756
0.0372749
0.0327832
-0.0132653
-0.0144984
-0.00973396
-0.00886758
-0.0130179
-0.0161688
-0.0168106
-0.0193956
-0.00944048
-0.00930151
-0.0224966
-0.0194117
-0.0125717
-0.0153203
-0.0180267
-0.0123841
-0.0130702
-0.0201737
-0.0158727
-0.0165984
-5.03565e-05
-0.000311706
-9.28143e-05
-0.000184725
-0.0003657
-0.000116869
-0.000647784
9.03179e-05
-0.00041725
-0.000502848
-0.000189498
-0.000407595
-0.000411376
-7.0209e-05
-0.000440582
-0.000713627
-0.000519179
-0.000472615
-6.40151e-05
0.00072603
0.000404246
-0.0111136
-0.0127425
-0.00286183
-0.00180956
-0.00181385
-0.00371864
-0.00902489
-0.00455403
-0.00711414
-0.00484226
-0.00838362
-0.00851045
-0.0101693
-0.00956227
0.0281513
0.0281028
0.027972
0.0280473
0.0283155
0.0283324
0.0282123
0.0282405
0.0280537
0.02792
0.0284302
0.0282099
0.0283724
0.0283675
0.0279976
0.0279216
0.0280865
0.0282539
0.0283829
0.0279848
-0.0015754
-0.00167898
-0.0011979
-0.000826408
-0.00324432
-0.0033546
-0.00364899
-0.00438831
-0.00270597
-0.00155279
-0.001289
-0.00331986
-0.00360106
-0.00408816
-0.00471133
-0.00467006
-0.00267496
-0.00422132
-0.00402466
-0.00308695
0.0282436
0.0281183
0.0282005
0.0282427
0.028232
0.0282579
0.0281826
0.0283085
0.0283738
0.0283863
0.0284549
0.0281589
0.028323
0.0283025
0.0284068
0.0283908
0.0282726
-0.00483084
-0.00476282
-0.00490821
-0.0051361
-0.00503119
-0.0047648
-0.00457091
-0.00488778
-0.00498734
-0.0051082
-0.00460092
-0.00428385
0.0262531
0.0260737
0.0266226
0.0266276
0.0263811
0.02633
0.0259822
0.0261926
0.0264271
0.0265849
0.0266262
0.0262591
0.026084
0.0262007
0.0260076
0.0262002
0.025999
0.0262656
0.0263325
0.0259937
0.0262368
0.0197989
0.0193704
0.0194616
0.0198711
0.0199209
0.0191018
0.0194857
0.0210984
0.0212671
0.0210631
0.0203743
0.0200271
0.0196597
0.0195892
0.0196326
0.0202985
0.0202017
0.0201899
0.00538239
0.00569442
0.00571185
0.00520521
0.0055532
0.00626424
0.00587446
0.00581118
0.0056557
0.00682302
0.00655444
0.00683996
0.00665908
0.00574073
0.00543085
0.0463397
0.0412485
0.0353977
0.0368233
0.0431866
0.0412759
0.0527579
0.0381007
0.0449768
0.0398656
0.0523252
0.0521325
0.0478455
0.0410916
-0.00356896
-0.0034008
-0.00371964
-0.00406652
-0.00392688
-0.00413015
-0.00364914
-0.00365316
-0.00379445
-0.00363165
-0.00410869
-0.00398327
-0.00379177
-0.00335744
-0.00349611
-0.00378757
0.0219766
0.0199263
0.0215676
0.019766
0.0194225
0.0198077
0.0201092
0.0201656
0.0210231
0.0214151
0.0238828
0.0233752
0.0223876
0.0247303
0.0253097
0.0227319
0.0237458
0.0274619
0.0274171
0.0270132
0.0271156
0.0272142
0.0272738
0.0274907
0.0275307
0.0269759
0.0270957
0.0274405
0.027464
0.0274222
0.0272953
0.0272533
0.0274187
0.0272209
-0.0191688
-0.0166792
-0.0163055
-0.0208942
-0.0161767
-0.0211551
-0.0279856
-0.0155427
-0.0186359
-0.0186754
-0.0177229
-0.0198981
-0.0218258
-0.0167826
-0.0181402
-0.0186226
-0.0137041
-0.0142041
0.0146342
0.0143091
0.0158759
0.0155699
0.0148638
0.0136232
0.0140033
0.0155
0.0159872
0.0156088
0.0153475
0.0156521
0.0140236
0.013779
0.0131759
0.0149185
0.0138216
0.0144061
0.0134407
0.0148923
0.0142082
0.0139873
-0.00266019
-0.00357212
-0.0033104
-0.00300082
-0.00163931
-0.00209674
-0.000505883
-0.000564693
-0.00174525
-0.00221551
-0.00238775
-0.0011714
-0.000594042
-0.000277589
-0.000546353
-0.000282678
-0.0038018
-0.00424762
-0.00357393
-0.00367299
-0.00411087
-0.00387225
-0.00370485
-0.00404545
-0.00428753
-0.0041451
-0.00417799
-0.0035225
-0.00354924
-0.00344108
-0.0036231
-0.00359365
-0.00421352
-0.00422451
-0.00413129
-0.00385802
-0.00353044
-0.00390522
-0.00404419
-0.00414701
-0.00418774
-0.00428561
-0.00444533
-0.00455928
-0.00413106
-0.00452065
-0.00394127
-0.00424065
-0.00386859
-0.0044543
-0.0037335
-0.00386869
-0.00373395
-0.00443738
-0.00392086
-0.00382787
-0.00439007
-0.00556064
-0.00469629
-0.00479616
-0.00734282
-0.00500723
-0.00127805
-0.00826247
-0.00813411
-0.000494774
-0.00240032
0.00120462
-0.0053366
-0.00101733
-0.00511536
-0.00355302
-0.00703929
-0.00669705
-0.00451121
-0.00304625
-7.93978e-05
-0.00197612
0.00102821
0.00378565
0.00236102
0.0017584
0.00219862
0.00269711
0.00416336
0.00405026
0.00315709
0.00252407
0.00177836
0.00212355
0.00220087
0.00195207
0.0028944
0.00273371
0.00366284
0.00261901
0.00196813
0.00255478
-0.00881961
-0.00842426
-0.00845693
-0.00871859
-0.00881831
-0.00881072
-0.00903316
-0.00926637
-0.00865728
-0.00930233
-0.00894012
-0.00860131
-0.00875164
-0.00862368
-0.00874814
-0.00865363
-0.00873589
-0.00566475
-0.00579105
-0.00680004
-0.00651484
-0.00627245
-0.00651795
-0.00663246
-0.0064108
-0.00591088
-0.00654871
-0.00608866
-0.00656925
-0.00623222
-0.00632502
-0.00197435
-0.00210752
-0.0023939
-0.00247918
-0.00298321
-0.00312367
-0.00203823
-0.00299568
-0.00349964
-0.00391412
-0.0039115
-0.00246385
-0.00269999
-0.00346428
-0.00357194
-0.00235565
-0.0027297
4.37987e-08
3.38893e-05
-8.01747e-05
-2.06812e-05
-3.82585e-05
-6.19597e-05
-8.22836e-05
6.34694e-06
1.57462e-05
-2.96966e-05
-9.91696e-05
-0.000157077
-0.000336934
-0.000188487
-8.95269e-05
-0.000122579
-0.000167941
-0.000173977
-0.000182279
-0.000260802
-0.000136287
-8.07496e-05
-0.000274213
3.47119e-05
-0.000123554
-0.000181016
1.88861e-05
-0.000256749
-0.000190456
0.000103126
-0.000109932
-3.66986e-05
-3.4511e-05
-0.000121851
-0.000350322
-6.56685e-05
-0.000153059
-0.000283466
-5.29934e-05
-0.000204979
-0.014549
-0.0174987
-0.0198571
-0.021176
-0.0214752
-0.0228923
-0.0148377
-0.0188798
-0.0199992
-0.014626
-0.0156098
-0.016721
-0.0209413
-0.0198007
-0.0208363
-0.0190129
-0.0175257
-0.00147635
-0.00149665
-0.00183772
-0.000788826
-0.00136835
-0.00208496
-0.00231389
-0.000713118
-0.000993061
-0.001798
-0.00781437
-0.00772503
-0.00765585
-0.00785426
-0.00720127
-0.0072037
-0.00784387
-0.0079224
-0.00778966
-0.00792892
-0.00746591
-0.00721742
-0.00737321
-0.00752869
-0.00743689
-0.0077336
-0.00754141
-0.00771709
-0.00712332
-0.00717396
-0.00722818
-0.00700606
-0.0071913
-0.00704999
-0.00713759
-0.00701822
-0.0066317
-0.00679126
-0.00724175
-0.00725691
-0.00699488
-0.000318025
-0.000196972
-0.000410516
-0.000254156
-0.00044284
-0.000538921
-0.000405587
-0.000114601
-1.44468e-05
-0.000169435
-0.000386211
-0.00037932
-9.02509e-05
2.57043e-05
-0.00730868
-0.00730492
-0.00756738
-0.00758898
-0.00724293
-0.00765967
-0.00772114
-0.00729338
-0.00730385
-0.00749237
-0.00736672
-0.0075291
-0.00750976
-0.00740524
-0.0076626
-0.0235589
-0.0226995
-0.0216501
-0.0239156
-0.0246487
-0.0242078
-0.0260591
-0.0296361
-0.0250117
-0.0245282
-0.025485
-0.0291181
-0.0241576
-0.0252629
-0.0262592
-0.0251485
-0.0264092
-0.0265013
0.0272151
0.0272115
0.0274641
0.0268196
0.0269324
0.0268951
0.0270019
0.0268245
0.0271404
0.0271181
-0.00953533
-0.00963908
-0.0096507
-0.00987871
-0.00957107
-0.00984318
-0.00948769
-0.00959171
-0.00943019
-0.0094792
-0.0095261
-0.00971107
-0.00984704
-0.00969517
-0.00983965
-0.00951605
-0.0096635
-0.00965089
-0.00953789
-0.00973749
-0.00977967
-0.00964715
-0.000224833
-0.000240151
0.000196935
0.00019342
6.50963e-05
0.00119074
0.00018733
-0.000420716
0.000689866
0.000868838
0.000454611
0.0012627
0.000781861
0.000608362
0.000649176
0.00126224
0.00115978
-0.000108496
0.0288923
0.0298644
0.0311192
0.0298132
0.0284185
0.0308795
0.0290526
0.0300016
0.0263282
0.0282157
0.0297772
0.0269626
0.0272771
0.0260343
0.0247772
0.0278903
0.0257191
0.0245823
0.0256408
0.0313558
0.0299139
0.0282051
0.0263533
0.0309504
0.0334744
0.0332084
0.0333206
0.0393463
0.0370067
0.0341071
0.0380536
0.02955
0.0305789
0.0391711
0.041624
0.0356432
0.0403316
0.0280955
0.0282106
0.028263
0.0280738
0.0281842
0.0280752
0.0282535
0.0281952
0.0280412
0.0281781
0.0279849
0.0280193
0.0282461
0.0281802
0.0281859
0.0282494
0.0275524
0.0234007
0.0229768
0.0252756
0.0263939
0.0282391
0.0262373
0.0263256
0.0226638
0.0219841
0.0265883
0.0244733
0.0260038
0.0232842
0.0253161
0.0231327
0.0228804
0.0240942
0.0246537
0.0236066
0.0242666
0.0253619
0.0251934
0.0245132
0.0237685
0.0253706
0.0257591
0.0252465
0.0202091
0.0197804
0.0219869
0.0233666
0.0116083
0.0106256
0.02058
0.0204482
0.0113538
0.013569
0.0160345
0.0160237
0.0176602
0.0151686
0.0128177
0.0107062
0.0261131
0.025285
0.0256392
0.0261516
0.0253628
0.0266717
0.0262747
0.0254836
0.0254979
0.0283073
0.0278777
0.0275571
0.0270128
0.025912
0.0270407
0.0264814
0.0275162
0.0269091
0.0262676
0.0278011
0.00835908
0.00978643
0.00479861
0.00184382
0.00283964
0.00517415
0.0132304
0.00444255
0.00798663
0.00781181
0.00213588
0.00690938
0.00729959
0.00468175
0.0078069
0.0135757
0.0133475
0.0121622
0.0103324
0.00854587
0.0170013
0.0142161
0.0144545
0.0119999
0.0153978
0.0151264
0.0153478
0.0135005
0.0119185
0.0130682
0.0127245
0.0134969
0.0137709
0.0273054
0.0273577
0.0271498
0.0270456
0.027731
0.027708
0.0272468
0.0270854
0.0278883
0.0278898
0.0273074
0.0276004
0.0278704
0.0278337
0.0277231
-0.0105027
-0.00995071
-0.0108315
-0.0115842
-0.0122696
-0.0102649
-0.0102565
-0.0122564
-0.0127381
0.0298322
0.0289607
0.0279616
0.0279089
0.0286316
0.0280208
0.0302448
0.0277062
0.03145
0.0300085
0.0278168
0.0296476
0.0302835
0.0306659
0.0311138
0.0269275
0.0272167
0.0289873
0.0311613
0.0298331
0.0274148
0.0282801
0.00226102
0.00298666
0.00233154
0.000474885
0.00153452
0.00243272
-0.000724265
0.00069392
0.000895056
-0.000996848
-3.68773e-05
-0.00192606
-0.00120188
-0.00200633
-0.00249435
-0.00161436
-0.000480537
0.000992914
-0.00291738
-3.54283e-05
0.0260458
0.0243914
0.0290532
0.0246052
0.0264644
0.0329485
0.0302382
0.0264148
0.0301585
0.0256777
0.0280976
0.0339125
0.0317411
0.032485
0.0359316
0.0292712
0.0286096
0.0268774
0.0313519
0.0253348
0.0285101
0.0262687
0.0300698
0.0345116
0.0354145
0.0334784
-0.00639418
-0.00730907
-0.00665709
-0.00620678
-0.00719365
-0.00760494
-0.0072301
-0.0069904
-0.00748505
-0.00721108
-0.00725778
-0.00673996
-0.00645692
-0.00657831
-0.00652915
-0.00690331
-0.0063753
-0.0067629
-0.00710319
-0.00663799
-0.00677371
-0.00690291
-0.00678549
-0.00666062
-0.00663198
-0.00664791
-0.00603693
-0.00538124
-0.00603468
-0.00625254
-0.0060031
-0.00626775
-0.00600148
-0.00370604
-0.00569582
-0.00290385
-0.00538072
-0.00511425
-0.00419859
-0.00552079
-0.00646173
-0.00639358
-0.0057443
-0.00538226
0.00830498
0.00777275
0.00438176
0.0063307
0.00505747
0.00310019
-0.000268066
0.00452107
0.00484908
0.00225998
-0.00246932
0.00122729
0.00274147
0.0234356
0.0242229
0.0245554
0.0232145
0.0248683
0.0246542
0.0250515
0.0242097
0.024328
0.0233402
0.0235056
0.0253803
0.0247663
-0.0129451
-0.01302
-0.0141351
-0.0135884
-0.0133854
-0.0146084
-0.0163229
-0.0153645
-0.0171354
-0.0143286
-0.0143896
-0.0141202
-0.0155916
-0.0106077
-0.00875471
-0.00856706
-0.00911471
-0.00905411
-0.0100723
-0.00994272
-0.0100295
-0.00840146
-0.00854497
-0.0092534
-0.00843571
-0.00803895
-0.00808214
-0.00836099
-0.00654253
-0.00650238
-0.00640396
-0.00612404
-0.00589281
-0.0064027
-0.00621598
-0.00638273
-0.00605691
-0.00635256
-0.00587887
-0.00627799
-0.00582337
-0.00612621
-0.00581288
-0.00570755
-0.0101835
-0.00971002
-0.00965752
-0.00942409
-0.00977564
-0.009434
-0.00948521
-0.0102209
-0.00976069
-0.00916316
-0.00987321
-0.0101423
-0.00980927
-0.0105817
-0.0039535
-0.00420135
-0.00563173
-0.00318238
-0.00549865
-0.00534552
-0.00542242
-0.00450269
-0.0039862
-0.00432168
-0.00499693
0.0209047
0.0224588
0.0215699
0.0226942
0.02196
0.0228309
0.0219631
0.0212212
0.0223571
0.0214758
0.0228003
0.0206502
0.0221777
0.0303187
0.0332622
0.0356251
0.0440302
0.0418287
0.0302675
0.0474957
0.0467017
0.03375
0.0393911
0.031907
0.0340724
0.0424946
0.0464475
0.0492207
0.0374164
0.0392672
0.036057
0.0457856
0.0437515
0.0419184
0.0389292
0.0314234
0.0314963
0.031339
0.0300953
0.0298583
0.0286119
0.0290372
0.0294135
0.0287979
0.0277768
0.0278771
0.0179332
0.0172961
0.017003
0.0166128
0.0190428
0.0185592
0.0168832
0.0182752
0.0175151
0.0166217
0.0158179
0.0160766
0.0177723
0.0191681
0.0193452
0.0166315
0.0161012
0.0183252
0.0155429
0.0295937
0.0298803
0.0297664
0.0297651
0.0305041
0.030332
0.0301186
0.0299554
0.0299502
0.0303523
0.0311052
0.0308163
0.0312477
-0.0118348
-0.00758885
-0.00493537
-0.00871972
-0.00709909
-0.00260959
-0.0028734
-0.00269465
-0.00160779
-0.0058848
-0.00368067
-0.011919
-0.0151973
-0.00601653
-0.00308386
-0.00934386
-0.00701844
-0.0153582
-0.0103456
-0.0161231
-0.00915619
-0.00678908
-0.00651008
-0.00712184
-0.00687959
-0.00650217
-0.00676198
-0.00692509
-0.00727737
-0.00698588
-0.00722817
-0.00740148
-0.00713141
-0.00688711
-0.00716702
-0.00689374
-0.00683433
-0.0064664
-0.00730897
-0.00590513
-0.00618878
-0.00539592
-0.00461456
-0.00503871
-0.00537595
-0.00578232
-0.00576352
-0.00379066
-0.00567014
-0.00556872
-0.00615007
-0.00467175
-0.00419348
-0.00210378
-0.00171224
-0.00478254
-0.00368896
-0.00179504
-0.00507293
-0.00403404
-0.00258806
-0.00253981
-0.00394117
-0.00220485
-0.00254442
-0.00201193
-0.00220848
-0.00256668
-0.00283973
-0.00281372
-0.00300914
-0.0110127
-0.014151
-0.00979226
-0.0126613
-0.01569
-0.0110007
-0.0138099
-0.0184931
-0.0189571
-0.0216177
-0.0234096
-0.0199846
-0.0189081
-0.0203447
-0.0143051
-0.000252855
0.000438123
-0.000158816
-0.000535851
-0.000706866
-0.000465315
-0.00153253
-2.26132e-05
-0.000577019
0.000391046
-2.21338e-05
-0.000348209
-0.000638114
-0.000858894
7.0617e-05
-0.000501334
-0.00055266
-0.000288327
0.0125502
0.010433
0.00579588
0.0131977
-0.00109074
-0.0118394
0.0127253
0.00247828
0.01188
0.00578627
0.00675373
-0.0247515
-0.0184751
-0.0373596
-0.000155834
-0.000756987
-0.00327643
-0.0147609
-0.00669152
-0.000429728
-0.0166408
-0.0160674
-0.0163688
-0.0150884
-0.0152323
-0.0144695
-0.0144658
-0.0142935
-0.015255
-0.0151894
-0.0138541
-0.0142454
-0.0147133
-0.0140742
-0.0136663
-0.0120355
-0.0123669
-0.0146338
-0.010119
-0.0107277
-0.0122134
-0.0145695
-0.012054
-0.0113592
-0.0142784
-0.0129462
-0.00902622
-0.0097441
-0.00908338
-0.00933349
-0.00971174
-0.00991309
-0.00147109
-0.00218549
-0.000493797
-0.00326894
-0.00732527
-0.00207558
-0.0122251
-0.0118193
-0.0124625
-0.0128243
0.00120249
0.00133544
0.00019048
-0.000755466
-0.00561695
-0.00728758
-0.00735598
-0.00847033
-0.000828958
-0.00467419
-0.00192218
-0.00200999
-0.00471854
-0.00629242
-0.00635953
-0.00573614
-0.00307052
-0.00292089
-0.0040007
-0.0014025
-0.00135683
-0.00448917
-0.0065372
-0.00354077
-0.0024845
-0.0013257
-0.000739907
-0.00484
-0.00261026
-0.00297053
-0.00418927
-0.00295465
0.0101611
0.0107406
0.00778445
0.00816088