/*--------------------------------*- C++ -*----------------------------------*\
  =========                 |
  \\      /  F ield         | OpenFOAM: The Open Source CFD Toolbox
   \\    /   O peration     | Website:  https://openfoam.org
    \\  /    A nd           | Version:  10
     \\/     M anipulation  |
\*---------------------------------------------------------------------------*/
FoamFile
{
    format      ascii;
    class       volScalarField;
    location    "3";
    object      k;
}
// * * * * * * * * * * * * * * * * * * * * * * * * * * * * * * * * * * * * * //

dimensions      [0 2 -2 0 0 0 0];

internalField   nonuniform List<scalar> 
75457
(
1.12504
0.525819
0.503655
0.155711
1.09594
1.26652
0.839707
1.31343
0.266441
0.262652
0.248482
0.924176
0.81584
0.362911
0.000995765
0.000948994
0.00107758
0.00106707
0.000966138
0.000843011
0.000942685
0.00100598
0.00105928
0.000981638
0.000991063
0.00102415
0.00101097
0.000558646
0.00257083
0.000513507
0.000239456
0.00437585
0.00488028
0.00077663
0.000673142
0.00136201
0.000921579
0.00681396
0.0045422
0.00178475
0.0024946
0.00158516
0.00088322
0.00130218
0.00144877
0.000869752
0.000870081
0.00107169
0.296926
0.051567
0.175642
0.297062
0.808742
0.17509
0.0634295
0.0725285
0.593519
0.595215
0.424203
0.884216
0.709742
0.363475
0.454319
0.319658
0.0579588
0.329788
0.0878067
0.376263
0.485851
0.910257
0.464796
0.991753
0.365893
0.0285811
0.455513
0.132291
0.138707
2.01471
1.5426
1.00256
2.56353
2.04187
1.37215
0.95643
0.692179
0.566907
0.358814
0.423883
2.00068
1.97916
1.01047
0.514997
1.74842
0.966121
0.501896
0.167802
0.18641
0.226097
1.2295
0.553391
0.443828
0.879873
0.116155
0.0638385
0.0401457
0.0557832
0.187097
0.0406962
1.07554
0.310915
0.374238
0.780624
0.856823
0.69445
0.0736254
0.838585
1.28522
0.458992
0.448556
1.5381
0.017536
0.0711623
0.0762174
0.186113
0.446028
0.270532
0.844605
0.438792
0.849679
0.0924623
0.168702
0.906144
0.273501
0.587825
0.515373
0.868314
0.361325
0.744009
0.712903
1.30589
0.111312
0.232575
0.417574
0.11481
0.15357
0.562972
0.508231
0.432257
1.15289
0.500493
1.86058
0.909519
0.257445
0.172854
0.489399
0.816247
0.428235
1.22239
0.298687
0.676728
1.32125
0.262232
0.841839
0.0052404
0.00545405
0.0056292
0.00548275
0.00558386
0.00504415
0.00500956
0.00519998
0.00555404
0.00510562
0.00532736
0.00518665
0.00505116
0.473347
0.523213
0.637949
0.863827
0.817489
0.831556
0.479841
0.714988
1.22929
0.303349
0.5434
0.635448
1.07031
2.32371
0.540058
0.0300306
0.462093
0.728837
0.402057
1.40729
0.0911625
0.198502
0.133596
0.130251
0.0778217
0.508186
0.680325
0.69304
0.444181
0.47515
0.838724
1.31006
1.24975
1.24505
0.972221
0.979113
1.33134
1.48665
0.802667
0.771069
1.51932
0.846417
1.6722
1.60595
1.46295
0.744592
0.754129
1.06137
0.688459
0.754193
1.65798
0.730053
0.584431
0.962772
0.183463
0.160189
1.10789
0.472539
0.667778
0.413579
0.770521
0.136224
0.154984
0.191464
0.215475
0.638486
0.905516
0.5187
0.931194
0.648618
0.323891
0.426942
0.772136
1.26923
0.598267
0.917081
0.0899425
0.18402
0.0910605
0.0749922
0.012111
0.0285881
0.0519169
0.00893657
0.00709346
0.00815909
0.0251922
0.0727187
0.625152
1.26731
0.811229
1.80644
1.15694
1.12801
1.34925
1.06162
0.504065
0.518326
0.63079
0.451981
0.685033
0.634545
0.891823
0.589632
0.670357
0.630833
0.734877
0.668765
0.460968
0.552294
0.500121
0.113677
0.112373
0.27335
0.187397
0.250435
0.497238
0.958944
0.984135
1.25152
1.08535
0.803619
0.82533
1.04835
0.838289
0.575912
1.24607
0.272549
0.260369
0.30696
0.271482
0.380168
0.253456
0.768232
0.284261
0.191995
0.320147
0.182895
0.910202
3.08091
1.6111
0.775018
0.818037
1.23937
0.754334
1.41289
1.71345
1.29454
1.27863
0.251391
0.180935
0.207066
0.525683
0.727144
0.334802
0.311909
0.729107
1.13426
0.295547
0.293735
0.894197
0.817064
1.88863
0.752566
0.702947
1.28463
0.0933663
0.447482
0.996545
0.305604
0.21463
0.227924
0.51796
0.2309
0.266789
0.403453
0.230345
0.260949
0.848087
0.949334
1.15313
2.20038
0.657467
0.50795
1.21064
1.27187
1.32415
1.18778
0.0911473
0.0899842
0.153419
0.157586
0.286122
0.215069
0.532918
0.209984
0.287169
0.431516
1.38605
0.66513
0.53284
0.419006
0.648702
0.309031
0.568007
0.730444
1.25827
1.22982
0.703014
0.72294
0.387385
0.42651
0.103627
0.0835137
0.293064
0.00367119
0.00366593
0.00361077
0.00355552
0.0037447
0.00369492
0.0036601
0.0036973
0.00365049
0.00360519
0.00365971
0.00347103
0.00354498
0.00348073
0.00357809
0.0035973
0.00346235
0.0035021
0.00363037
0.00360293
0.00369236
0.0034681
0.00356689
0.00343819
0.0037999
0.00375818
0.00349739
0.00353004
0.00349108
0.00368441
0.00367062
0.00310556
0.00329053
0.00343569
0.00347056
0.003367
0.0034482
0.00353781
0.00362389
0.00316224
0.00325463
0.00320967
0.00325092
0.00331143
0.00345591
0.00338727
0.00360506
0.00348738
0.00350507
0.00345389
0.00355801
0.00347031
0.00350363
0.0399732
0.00441368
0.00537991
0.00373081
0.00519854
0.0263138
0.00674598
0.0105219
0.00305488
0.0289425
0.000548343
0.00505069
0.00871371
0.00966616
0.00599121
0.058808
0.87476
0.921626
0.66807
0.632263
0.15328
0.164175
0.453824
0.479314
0.188001
0.181538
1.79563
0.900762
0.986449
0.493634
0.204192
0.00171218
0.00628111
0.0071358
0.0375451
0.0507691
0.0317864
0.0178047
0.00964212
0.0073012
0.00792788
0.00817544
0.0352249
0.0456276
0.0443506
0.0223815
0.145852
0.0346283
0.022354
0.0279581
0.00386367
0.00391813
0.00390947
0.00375058
0.00374161
0.00381567
0.00378327
0.00374944
0.0038796
0.00374932
0.00383676
0.00396471
0.00385693
0.00387063
0.00389379
0.00393662
0.00494056
0.00473194
0.00501876
0.00471186
0.00454406
0.00507484
0.00542641
0.00508801
0.00493474
0.0051173
0.00504179
0.00485801
0.00510376
0.00487221
0.00495942
0.00537541
0.00541552
0.00487117
0.00478895
0.00432474
0.00453428
0.00439929
0.00425693
0.00295021
0.00520782
0.00422521
0.00409819
0.00443617
0.00416123
0.00415731
0.00414852
0.0043913
0.00400499
0.00309242
0.0214108
0.0227553
0.0268654
0.0349701
0.00549084
0.0148444
0.0130978
0.0230332
0.00861871
0.00248702
0.0255239
0.0392664
0.0275458
0.00929839
0.0110899
0.0238383
0.0331039
0.0342247
0.00203272
0.00306513
0.00491891
0.00841584
0.000662337
0.00848972
0.00153702
0.00279629
0.00196149
0.00540774
0.00608526
0.00130484
0.00119612
0.00131727
0.00191954
0.00194347
0.000806161
0.00118009
0.00117056
0.000631552
0.00205413
0.00250194
0.00204676
0.0010357
0.00134273
0.00194172
0.00212968
0.000992294
0.00135051
0.00270399
0.00108169
0.00109491
0.00303068
0.00306848
0.00317042
0.00366774
0.00363166
0.00312359
0.00315695
0.00362863
0.0033883
0.00363015
0.00326215
0.00356028
0.00453206
0.00223861
0.00727668
0.00216088
0.00606057
0.00323428
0.00678077
0.00777661
0.00412548
0.00229301
0.00660561
0.00164911
0.00139328
0.00161128
0.00451525
0.00176878
0.000727412
0.00711082
0.000466566
0.0043704
0.0168901
0.00891727
0.0139076
0.0133756
0.0135704
0.00506564
0.0028932
0.000396696
0.0249621
0.00161953
0.00256748
0.00438094
0.00277213
0.00424856
0.024687
0.013264
0.000572386
0.0431197
0.0321104
0.00564578
0.000537683
0.0065746
0.000700655
0.00157791
0.00229986
0.000952781
0.0150305
0.038739
0.0327743
0.0372624
0.0116668
0.00198688
0.00115623
0.00116658
0.0007762
4.17184e-05
0.000959318
0.0013276
0.00152572
0.00103484
0.00103411
0.000929578
0.0011037
0.00104606
0.00105179
0.00126392
0.00111442
0.00115235
0.00126839
0.00112298
0.00120249
0.00108324
0.00100825
0.00101662
0.00100016
0.000994804
0.00111449
0.00106031
0.00100903
0.00101339
0.00100186
0.000994523
0.00101409
0.0832671
0.202694
0.216836
0.0115145
0.0372136
0.137016
0.0636447
0.023732
0.0285307
0.238043
0.147293
0.208463
0.264441
0.224257
0.184441
0.230412
0.269468
0.228859
0.3253
0.167184
0.132855
0.213736
0.400062
0.400921
0.203117
0.351626
0.362753
0.350382
0.167053
0.217751
0.1756
0.220188
0.00443492
0.00501296
0.0220517
0.0130167
0.00978856
0.000915963
0.0101836
0.00394242
0.00877841
0.0722963
0.109947
0.138373
0.00974889
0.101823
0.211326
0.076175
0.140555
0.00695754
0.0271507
0.0648495
0.249585
0.00291362
0.020367
0.222664
0.13997
0.00223502
0.246611
0.0218101
0.0893796
0.0464831
0.0612966
0.219703
0.192144
0.437232
0.5818
0.461969
0.353743
0.20342
0.506931
0.413574
0.518647
0.00219075
0.00457664
0.000372699
0.00131392
0.00104624
0.000872858
0.0012954
0.00189998
0.0273999
0.0011551
0.00436422
0.00616972
0.000214058
0.000327642
0.025007
0.00532999
0.0049138
0.00450585
0.0110515
0.0254018
0.0282533
0.00638728
0.00149573
0.000834879
0.00171214
0.00237141
0.000952762
0.00160641
0.0016161
0.00347303
0.00235551
0.00123914
0.00102882
0.0010888
0.00166016
0.00291693
0.00191576
0.00172255
0.00139074
0.00117695
0.000795945
0.0017604
0.00586872
0.0459994
0.000304073
0.00256341
0.0145872
0.0341593
0.00186217
0.000957295
0.00718065
0.00374171
0.00373393
0.0106298
0.0110605
0.0322112
0.004858
0.00410502
0.00490923
0.0294638
0.0025537
0.00197371
0.00879207
0.00112925
0.0208897
0.0693556
0.000716596
0.000931695
0.002665
0.00622615
0.00136926
0.00259853
0.00497786
0.0147097
0.0249062
0.0180599
0.000964359
0.00121773
0.000958554
0.00290607
0.00109895
0.00196523
0.00182463
0.00157838
0.0016796
0.00165962
0.00128596
0.00123542
0.00157377
0.0016059
0.00162436
0.00156407
0.0012439
0.00157606
0.00165601
0.00365401
0.00380696
0.00398736
0.00371407
0.00385728
0.00376656
0.00394474
0.0037772
0.00399509
0.00413093
0.0278646
0.0194838
0.0174238
0.0470576
0.0077224
0.0038489
0.0404929
0.0751181
0.0107848
0.0237572
0.0386576
0.0475115
0.0308754
0.0113073
0.042085
0.0494284
0.00445485
0.107492
0.11783
0.0959656
0.167014
0.134967
0.0885465
0.181038
0.151509
0.139243
0.134591
0.0866386
0.0981369
0.117746
0.105033
0.160591
0.121981
0.123288
0.0889525
0.122537
0.111646
0.00239434
0.00405192
0.00242006
0.00191821
0.0043943
0.0281798
0.032401
0.00526245
0.00362961
0.00339315
0.0311969
0.038636
0.00182568
0.0176314
0.0238174
0.0453199
0.669589
0.666385
0.649834
0.697776
0.392108
0.42865
0.400763
0.691975
0.693896
0.640947
0.320106
0.444256
0.592905
0.00155241
0.00165374
0.00173336
0.00205161
0.00182778
0.00154354
0.001699
0.00144568
0.00156447
0.00218403
0.0017723
0.00147539
0.0334537
0.0909971
0.05757
0.0438423
0.0860694
0.0743653
0.0272409
0.0233775
0.0269472
0.0353713
0.00120661
0.000371216
0.00173621
0.00121087
0.00138792
0.0147113
0.0634982
0.00215992
0.0182126
0.0108053
0.00860843
0.00994323
0.00964571
0.010921
0.00183991
0.00292178
0.00806527
0.00758256
0.00336482
0.00399364
0.00459244
0.000982085
0.00367689
0.00302317
0.00291869
0.00296466
0.00349312
0.00140317
0.324627
0.547569
0.280464
0.281987
0.29572
0.325266
0.304359
0.27343
0.264209
0.328363
0.338094
0.314126
0.219841
0.233164
0.221795
0.324291
0.0665083
0.159804
0.123847
0.0669809
0.0104161
0.0198463
0.0252529
0.0121202
0.0106577
0.010341
0.0933708
0.063438
0.0183122
0.0486574
0.0312691
0.0234172
1.07987
0.870953
0.902745
0.859731
0.938015
0.75405
0.153776
0.106706
0.20621
0.247643
0.202369
0.111293
0.39951
0.797656
0.919291
0.541393
0.740057
0.765223
0.137897
0.544445
0.0134018
0.00930531
0.00738163
0.00651922
0.00790668
0.00574935
0.0066358
0.00664132
0.00633829
0.0148203
0.0165714
0.00886906
0.00871062
0.00591785
0.0153674
0.0207091
0.0325012
0.0414301
0.0473732
0.100892
0.0728398
0.0955216
0.0135541
0.105288
0.12358
0.11032
0.0774153
0.129427
0.181637
0.00547589
0.0100697
0.00372604
0.00575837
0.00458088
0.00680294
0.00326526
0.00180917
0.00837818
0.00213295
0.00425271
0.00183442
0.00207082
0.00174247
0.00147198
0.0015795
0.0111403
0.0121545
0.0101276
0.00988401
0.0584667
0.0655125
0.00985894
0.0579157
0.0280674
0.00397465
0.0550467
0.0919252
0.140205
0.0411409
0.0512427
0.0672818
0.0696696
0.123609
0.115914
0.00180711
0.00791116
0.00560057
0.00322993
0.00207711
0.00680594
0.00660002
0.00592984
0.00748978
0.00732577
0.00164043
0.00261631
0.00422775
0.00214474
0.00489698
0.00491429
0.00526374
0.00348704
0.00258353
0.00282352
0.00256197
0.0089915
0.00157801
0.00610325
0.00838588
0.0159692
0.0119109
0.0105535
0.0781051
0.00477876
0.00647393
0.0255069
0.0230166
0.0125214
0.0109062
0.0260452
0.0289368
0.0131645
0.0250949
0.00908818
0.0073194
0.00733406
0.00805861
0.0308741
0.00851438
0.00527924
0.0045788
0.00324694
0.00434253
0.00385566
0.00352174
0.0139449
0.00445604
0.0219174
0.0175607
0.0128025
0.00808832
0.233542
0.698769
1.19074
0.435216
0.85938
0.29206
0.437983
0.788371
0.970517
0.15651
0.539494
0.675828
1.07369
0.316029
0.632297
0.102233
0.415691
0.185001
0.152848
0.455122
0.594981
0.392842
0.143766
0.113761
0.109441
0.841767
0.839411
0.860462
0.988132
0.106435
0.113687
0.106215
0.085759
0.0999613
0.225583
0.24801
0.185049
0.00578513
0.0124783
0.00275155
0.00587889
0.00533097
0.00136644
0.000218603
0.00421275
0.00114546
0.000829042
0.000868682
0.00091573
0.00114115
0.00146882
0.00103044
0.00103078
0.107964
0.0413308
0.188783
0.180173
0.8282
0.61589
0.0372877
0.548759
0.686063
0.590801
0.555522
0.677334
0.116897
0.849213
1.02136
0.724829
0.860514
0.190628
0.030809
0.671048
0.0275528
0.535981
0.706371
0.104382
0.339337
0.0687824
0.637017
0.909301
0.493045
0.0141267
0.112699
0.147387
1.01968
0.101371
0.253417
0.391596
0.767224
0.385506
0.582412
0.569449
1.08833
0.308315
0.487947
1.56247
0.363178
0.731003
0.386937
0.719218
1.07012
0.451853
0.22205
0.782781
0.895641
0.178937
0.0557108
0.635956
0.0532507
0.575372
1.03209
0.573011
0.0892208
0.124969
0.943439
0.587449
0.12838
0.0892005
0.120105
0.0870607
0.0269853
0.0569866
0.0370085
0.0784666
0.0930539
0.0116689
0.0217489
0.0180785
0.0537382
0.0818264
0.0425167
0.0330759
0.0054546
0.0712517
0.061845
0.066216
0.0585273
0.032561
0.0313364
0.0414399
0.0433731
0.102749
0.132867
0.0324112
0.0534751
0.0599339
0.377255
0.675999
0.21198
0.0108541
0.0104578
0.0100627
0.0103686
0.0111687
0.00934105
0.0330646
0.039085
0.0608746
0.0319659
0.00165214
0.0128966
0.0141143
0.00848676
0.0274102
0.0264544
0.0780723
0.0303068
0.00659518
0.00739634
0.121371
0.116817
0.115676
0.110707
0.144992
0.0977451
0.256169
0.258816
0.110119
0.108016
0.107959
0.155193
0.109488
0.108878
0.155116
0.156539
0.162105
0.116368
0.134153
0.0132267
0.00298171
0.00728296
0.00179037
0.263734
0.397492
0.0853031
0.127371
0.00462752
0.00269316
0.160047
0.0458153
0.00351225
0.113813
0.404452
0.113578
0.0191471
0.144364
0.0430127
0.159835
0.00238601
0.000830348
0.0460269
0.000787016
0.0228647
0.462373
0.661086
0.222282
0.14636
0.0399632
0.0950332
0.00238988
0.103902
0.0985318
0.31406
0.0373438
0.0101387
0.00387887
0.068711
0.204602
0.141123
0.0913591
0.0992115
0.145318
0.152233
0.0588483
0.0687611
0.0428848
0.121471
0.18809
0.636309
0.481808
0.11952
0.187612
0.395233
0.0235293
0.0222423
0.0247531
0.0299143
0.0303881
0.0269078
0.0503703
0.0418807
0.044834
0.0276915
0.0314432
0.0300561
0.0454824
0.0351465
0.0357976
0.0345144
0.0417256
0.0391456
0.0394242
0.0304049
0.742284
0.873559
0.517734
0.91107
0.312921
0.36222
0.0744985
0.185611
1.002
0.561154
1.03178
0.807238
0.154649
0.123521
1.03133
0.726178
1.01993
0.620067
1.3009
0.394803
0.0219368
0.0445895
0.0551466
0.0549561
0.0372834
0.0281703
0.0250131
0.0391207
0.0490258
0.0417561
0.042602
0.0380368
0.0658501
0.0316448
0.0840478
0.0765701
0.0784785
0.234701
0.783509
0.705739
1.55701
0.320867
0.373085
0.529935
0.549467
2.5814
0.531784
0.0549872
1.23942
0.0119951
0.0104997
0.00904735
0.00415072
0.0114677
0.0083535
0.00770482
0.00525391
0.00497951
0.0136229
0.00885312
0.00480297
0.0570767
0.000273891
0.0196851
0.00104142
0.0310318
0.0975347
0.00110988
0.0563997
0.0807385
0.164106
0.147423
0.00678774
0.0109543
0.247633
0.176136
0.2641
0.00931882
0.0202538
0.035088
0.00772753
0.0170946
0.0198857
0.00761808
0.0710382
0.0204387
0.030457
0.00968528
0.0491059
0.154749
0.0390119
0.0608628
0.104369
0.362216
0.00431793
0.0150575
0.259692
0.463385
0.0398153
0.00899341
0.0928653
0.2334
0.0668895
0.228423
0.239297
0.201772
0.113602
0.173453
0.214357
0.156575
0.157146
0.0733873
0.0131593
0.143037
0.0639886
0.060854
0.0242061
0.00594577
0.010489
0.0124286
0.0255279
0.000650485
0.00197999
0.000739484
0.00106756
0.0378114
0.0374864
0.00732656
0.000714992
0.00482263
0.0155212
0.0449342
0.0444208
0.0111743
0.00350716
0.0052368
0.133413
0.0766609
0.511187
0.358842
0.122815
0.484949
0.328047
0.219242
0.104452
0.0196452
0.00130634
0.0159538
0.0527991
0.00511043
0.0209697
0.0213606
0.00743655
0.0269058
0.0188758
0.0204806
0.0246579
0.0248908
0.0106192
0.0110139
0.0227762
0.0274573
0.0257736
0.0207307
0.0176678
0.0261279
0.0200777
0.0179051
0.00985842
0.00964332
0.0122858
0.00799903
0.379572
0.797389
0.0158283
0.113042
0.250619
0.0428362
0.113131
0.117017
0.0271737
0.0660967
0.0411852
0.0115355
0.0396023
0.489537
0.381686
0.228916
0.0662834
0.0849994
0.375246
0.339945
0.152556
0.145986
0.141519
0.0785825
0.093601
0.154051
0.0899037
0.074052
0.117628
0.0624159
0.0431465
0.122866
0.192383
0.1106
0.115399
0.0157408
0.0059397
0.00385402
0.0182567
0.0175187
0.00561644
0.00358949
0.00377017
0.0354528
0.00454773
0.012209
0.0114511
0.0244507
0.0112913
0.00293246
0.0027519
0.232328
0.136639
0.171807
0.255676
0.179097
0.147863
0.467202
0.245171
0.331793
0.337355
0.765014
0.464484
0.180591
0.552599
0.152269
0.291424
0.529712
1.18095
1.23605
0.607496
1.1282
1.35776
0.726988
1.0563
0.71981
0.446538
0.222934
0.138361
0.935785
0.625868
0.625712
0.0283275
0.11618
0.731776
0.0660787
0.486206
0.461656
0.0644962
0.0558771
0.0295493
0.422005
0.0586834
0.0602008
0.0358139
0.0876239
0.0588083
0.0604327
0.116727
0.0739585
0.0394938
0.0736919
0.0597863
0.483245
0.468795
0.413752
0.426024
0.181773
0.209195
0.263066
0.356484
0.306096
0.292955
0.395741
0.445144
0.120935
0.128362
0.152594
0.577039
0.440117
0.803486
0.559068
0.455511
0.119215
0.321835
0.543837
0.453558
1.04947
0.960673
0.339643
0.36502
0.377007
1.31378
0.647529
0.643323
0.401423
0.208399
0.654344
0.762173
0.168003
0.151073
0.100994
0.588582
0.485906
0.719395
0.972502
0.352292
0.521217
0.565578
0.098255
0.431104
0.436898
0.16253
0.15516
0.742181
0.55405
0.564043
0.875279
0.573049
0.595902
0.180408
0.147404
0.440674
0.172579
0.0909727
0.0778365
0.0412579
0.0885638
0.0488909
0.0129105
0.0359702
0.150181
0.0155246
0.0126104
0.051661
0.0528959
0.00378072
0.0145132
0.0225631
0.00952375
0.00753402
0.00110681
0.00107489
0.00142159
0.001439
0.0052249
0.00202856
0.00106745
0.000974173
0.00123005
0.00119184
0.00115708
0.000897236
0.00124306
0.00174914
0.000863093
0.00101083
0.00148626
0.00176376
0.00154452
0.0262024
0.0222602
0.000619552
0.00708304
0.0048067
0.00412721
0.00371657
0.00331869
0.00104047
0.000702512
0.00333393
0.00420741
0.000574888
0.000159207
0.00228129
0.00349873
6.75736e-06
0.00078132
0.000722978
0.00142481
0.00106503
0.0440332
0.0732124
0.0746557
0.0938199
0.0439244
0.0440325
0.565922
0.052115
0.0782132
0.604646
0.212234
0.0280598
0.134933
0.134825
1.68824
0.312251
1.07215
0.0638895
0.00751801
0.0516825
0.513651
0.365591
0.00854373
0.0481554
0.0443653
0.0169755
0.213246
0.217923
0.400804
0.0121876
0.0187189
0.248777
0.399947
0.00827773
0.012427
0.0120502
0.01395
0.0234643
0.0504791
0.00188683
0.575125
0.442298
0.035521
0.0271313
0.118345
0.249508
0.473547
0.264264
0.305572
0.366531
0.449872
0.975101
1.37063
0.755575
1.22689
0.171404
0.400179
0.149992
0.00168485
0.00160014
0.00226378
0.00154611
0.000758132
0.00276355
0.00196625
0.00149504
0.0040355
0.00493422
0.00414777
0.00300096
0.00178221
0.00301375
0.0195995
0.0298758
0.0115202
0.0158594
0.0399941
0.0153454
0.0146088
0.0854236
0.144161
0.0934052
0.1512
0.0609962
0.0458244
0.0609329
0.00971101
0.0144814
0.0553556
0.0344412
0.0304098
0.250464
0.0783987
1.47786
0.634972
0.128645
0.239411
1.18049
0.974408
0.0562459
0.426312
0.238798
0.172853
0.330638
0.718067
0.0294385
0.041071
0.0249024
0.0242793
0.0273326
0.0239124
0.028234
0.0222409
0.0220754
0.0174724
0.763779
0.757044
0.512986
0.9232
0.16872
0.138427
0.123682
0.216327
0.410582
0.518082
0.751
0.740333
0.597774
0.107446
0.130238
0.0468707
0.466626
0.610472
0.108054
0.113421
0.0876535
0.140336
0.162377
0.425243
0.134523
0.224468
0.398723
0.687296
0.438713
0.0509364
0.106878
0.687955
0.48717
0.716784
0.411044
0.0118741
0.0402507
0.373642
0.377737
0.265504
0.00696885
0.00685343
0.00650833
0.00698549
0.00661825
0.00633454
0.00669203
0.0065593
0.00613825
0.00644381
0.00627078
0.00651531
0.00672996
0.00653534
0.00627343
0.00601531
0.00612381
0.00591183
0.00624789
0.188284
0.180506
0.155169
0.138778
0.356392
0.28907
0.327396
0.321807
0.260052
0.329047
0.224215
0.183163
0.250193
0.183861
0.281242
0.26399
0.224147
0.196499
0.0277367
0.0289364
0.0242743
0.0220804
0.0370016
0.0310543
0.0358744
0.0302532
0.0280226
0.047196
0.0354748
0.0368796
0.037007
0.0444476
0.0597949
0.0571475
0.00396601
0.00413167
0.00411177
0.0039526
0.00392057
0.0039726
0.00393444
0.00388418
0.00407456
0.00405701
0.00383668
0.00398142
0.0038471
0.00462076
0.00453499
0.0046775
0.00466213
0.00457224
0.00443106
0.00495711
0.00470929
0.00502982
0.00477236
0.00484991
0.00484305
0.00475505
0.00488452
0.00463104
0.00418388
0.0045145
0.00403495
0.00428693
0.00458237
0.00315549
0.00403385
0.00414506
0.00440798
0.00419514
0.00442276
0.00420994
0.00425816
0.00426402
0.00452027
0.00456366
0.00882841
0.00882708
0.00861338
0.00800408
0.00815297
0.00845748
0.00787947
0.00791967
0.00822861
0.00831745
0.00996923
0.00981187
0.00838992
0.00802066
0.0082692
0.00831538
0.00976662
0.00867549
0.00888055
0.00869751
0.405928
0.394987
0.356742
0.300061
0.361116
0.354531
0.442571
0.369787
0.435825
0.262514
0.253228
0.507083
0.402393
0.395579
0.464986
0.609955
0.450715
0.440649
0.576231
0.645042
0.64217
0.530496
0.595642
0.742883
0.530595
0.748224
0.896439
0.820301
0.369584
0.37197
0.417039
0.87942
0.678472
0.0116747
0.0109005
0.0109226
0.00952853
0.0124299
0.0110748
0.00965184
0.00947418
0.0102705
0.0109576
0.00880403
0.00870961
0.00855804
0.00925553
0.00971677
0.00303935
0.00519231
0.00691276
0.00516811
0.00503777
0.0130648
0.00712285
0.00612577
0.005391
0.0080887
0.0085016
0.0074919
0.0075084
0.00815824
0.00735768
0.00728081
0.00774999
0.00701635
0.00675963
0.00685759
0.00668865
0.00701944
0.00784848
0.00733611
0.00687565
0.00694107
0.00716802
0.00783006
0.00818552
0.0069631
0.00716291
0.0014797
0.00418967
0.00142905
0.00173034
0.0035858
0.00552851
0.00194186
0.00134175
0.00115698
0.00141499
0.00120247
0.00149965
0.00160756
0.000810359
0.00108035
0.00205483
0.00274456
0.00413614
0.00169052
0.00397398
0.00410207
0.00397809
0.00378166
0.00408898
0.00473904
0.00408145
0.00433537
0.00456132
0.00421858
0.00402
0.00392463
0.0037253
0.00373765
0.00421917
0.00409599
0.00455474
0.00438822
0.00434201
0.00402722
0.00419683
0.00392922
0.00450807
0.00378335
0.00401387
0.00412592
0.00379065
0.00490763
0.00738057
0.00749055
0.00572409
0.0037658
0.00324079
0.00209698
0.00274451
0.00812504
0.00342924
0.00754641
0.00473742
0.00424012
0.00154103
0.00158336
0.0042894
0.00213044
0.00203081
0.00182239
0.00183981
0.00189174
0.00281527
0.00208975
0.00435818
0.00208876
0.00268033
0.00254549
0.00290965
0.00307881
0.00342644
0.00160652
0.00139739
0.00131636
0.00662892
0.00745794
0.0071131
0.00369795
0.00298302
0.00383255
0.00358346
0.00375947
0.00320816
0.0070549
0.00327111
0.00321325
0.00333545
0.003622
0.00322724
0.00300468
0.00319509
0.0032694
0.00306233
0.00326748
0.00317685
0.00334829
0.00294218
0.00306633
0.00550097
0.00598693
0.00557211
0.00518648
0.0055787
0.0059624
0.00642084
0.00577577
0.00566729
0.00555951
0.00553929
0.00601892
0.00569146
0.00208698
0.00183942
0.00217237
0.0018479
0.00168716
0.00173514
0.00206768
0.00202121
0.00185082
0.00243635
0.00238298
0.00189934
0.00227569
0.001308
0.00121738
0.00133607
0.00119383
0.00118043
0.00125523
0.00119932
0.00131565
0.001356
0.00110952
0.00117993
0.00125777
0.000754793
0.000784182
0.00119112
0.00075038
0.000827846
0.000845576
0.00141211
0.00453257
0.00131299
0.000518945
0.00758864
0.00691575
0.0169197
0.00294571
0.00461179
0.00138809
0.0014591
0.00535969
0.00203087
0.00165873
0.00615087
0.00186152
0.00578439
0.00220344
0.0104622
0.00224657
0.00148917
0.00220627
0.00910612
0.00180687
0.000815876
0.00196559
0.00252284
0.0647407
0.0838876
0.0588574
0.036073
0.0377925
0.0492176
0.0718407
0.0499033
0.0407513
0.0469639
0.0703127
0.00393483
0.00385842
0.00416155
0.00430154
0.00442454
0.00405776
0.00428582
0.00412458
0.00432268
0.0043394
0.00408891
0.00406067
0.00420981
0.00431615
0.00486494
0.00347355
0.00710959
0.00474629
0.00467639
0.00522816
0.00521498
0.00500317
0.00481561
0.00374485
0.00422019
0.00480409
0.00438994
0.00631102
0.00365693
0.00411149
0.00446219
0.00517013
0.00432556
0.00422963
0.00425462
0.00361139
0.00392539
0.00328796
0.00237973
0.00461563
0.00350917
0.0035861
0.00483284
0.00364453
0.00389218
0.00415863
0.00369033
0.00385654
0.00339296
0.00328522
0.00367184
0.00385095
0.00391851
0.00388592
0.00433821
0.00414262
0.0040188
0.00390129
0.00400136
0.00405744
0.00399942
0.00380964
0.00490506
0.00415608
0.00414661
0.0158835
0.0146061
0.0185486
0.0129935
0.013251
0.0171446
0.0187004
0.0151652
0.0173639
0.0161052
0.0132971
0.0174593
0.0142817
0.000141201
0.00249414
0.00211885
0.00116618
0.00199739
0.00192436
0.00188302
0.00214095
0.00211109
0.00187015
0.00193293
0.00223949
0.00345725
0.00186795
0.00216967
0.00131958
0.00247637
0.000623614
0.00339257
0.00531004
0.00183791
0.00212067
0.00211347
0.00223643
0.00249324
0.00204586
0.0019305
0.0024336
0.00341877
0.00351281
0.00628817
0.00452273
0.00494607
0.00170941
7.15663e-05
0.0047305
0.00258323
0.00253955
0.00221123
0.0345753
0.0323535
0.0302132
0.029139
0.035187
0.031834
0.0131744
0.0135347
0.0272752
0.0138085
0.0110155
0.0317385
0.0120249
0.00872332
0.00697023
0.00690967
0.010851
0.0213765
0.0150425
0.00999722
0.0167297
0.00798819
0.00844291
0.0107674
0.0191022
0.0171686
0.0186673
0.00164173
0.00101759
0.00088887
0.00190349
0.0011132
0.073387
0.004194
0.0522253
0.0337489
0.0968543
0.0117878
0.0124918
0.242423
0.284517
0.119564
0.450247
0.393214
0.0655395
0.246597
0.0214087
0.160272
0.121948
0.0978317
0.106765
0.0462416
0.00229471
0.0116629
0.128703
0.0698891
0.00592319
0.0045721
0.097732
0.107699
0.0141585
0.00637705
0.00497747
0.0159502
0.0262303
0.0339376
0.0407479
0.0792575
0.0770181
0.0767747
0.0829197
0.128453
0.118725
0.0478188
0.0443377
0.124167
0.112927
0.0874971
0.0850244
0.152094
0.054174
0.0701611
0.104499
0.137764
0.0682267
0.0973644
0.147787
0.0560183
0.0603327
0.0887398
0.055568
0.0508771
0.108069
0.209292
0.208519
0.0699629
0.120013
0.15665
0.124308
0.0127944
0.00640504
0.0228868
0.0165477
0.00210332
0.000927912
0.0097846
0.00472951
0.0258826
0.0290649
0.0317284
0.00653189
0.00178781
0.0010596
0.00277245
0.00783413
0.013605
0.0149139
0.058529
0.173029
0.170341
0.440651
0.547553
0.281129
0.39857
0.0236155
0.580394
0.440221
0.183556
0.177078
0.17834
0.242774
0.172775
0.0331825
0.474721
0.408984
0.0606601
0.257194
0.0313306
0.0401037
0.00129877
0.000849902
0.0017309
0.00153538
0.00138941
0.00128201
0.00131436
0.00154292
0.00140445
0.00144741
0.000954883
0.00126477
0.00127283
0.00142561
0.00128191
0.00109202
0.00136157
0.00135004
0.00129377
0.0012812
0.00654052
0.0206152
0.0601675
0.00440214
0.0018061
0.00319656
0.0581643
0.00180398
0.00542229
0.00393859
0.00317716
0.0207885
0.00384669
0.00280288
0.0188999
0.152653
0.527625
0.296268
0.645007
0.666076
0.600275
0.53881
0.437761
0.00206673
0.00229601
0.00427693
0.00387502
0.00357769
0.00366492
0.00365785
0.00250553
0.00344694
0.00390427
0.0026214
0.0032221
0.0419245
0.0552467
0.616603
0.219552
0.031563
0.0739294
0.588962
0.378305
0.580064
0.623631
1.0088
0.382318
0.75205
1.28987
0.29423
0.0916685
0.126571
0.11216
0.000710266
0.00136823
0.00171807
0.00159466
0.00155642
0.000656285
0.000814613
0.000934437
0.00107974
0.00216429
0.00278701
0.000756673
0.000860338
0.00010999
0.00067987
0.0021218
0.0020192
0.00139145
0.000953662
0.00108849
0.00241873
0.00309967
0.00141701
0.00267027
0.000930626
0.00107094
0.0013435
0.00478699
0.00157476
0.00107058
0.00941884
0.00122038
0.000995699
0.00167922
0.00263786
0.000970337
0.000834736
0.0032668
0.000956377
0.000962427
0.0145467
0.0131885
0.0151103
0.0177375
0.0139146
0.0167745
0.0146744
0.0130828
0.0156628
0.017469
0.017251
0.0157954
0.0155459
0.0144163
0.0157455
0.0140271
0.12299
0.179897
0.0737584
0.076031
0.29383
0.327483
0.219386
0.0573374
0.054461
0.06255
0.0773188
0.070136
0.354454
0.0631195
0.0968826
0.150226
0.271778
0.263936
0.00312446
0.00335959
0.00266539
0.00126759
0.00162229
0.0014826
0.00104109
0.00148702
0.00380909
0.00287005
0.00196158
0.0011476
0.00109809
0.000765308
0.00659428
0.00249624
0.00535988
0.00249487
0.00209511
0.00206044
0.00273229
0.0025172
0.00232277
0.00233661
0.00132149
0.00189261
0.00514977
0.00558056
0.00859357
0.000509977
0.00184677
0.00166423
0.000906326
0.001884
0.00331359
0.00508423
0.335932
0.316796
0.274117
0.144411
0.0260837
0.174042
0.0407823
0.116805
0.182341
0.285278
0.0331703
0.0321409
0.0999324
0.106882
0.0462947
0.0599173
0.0179393
0.0191391
0.0222998
0.0229371
0.00846298
0.0220666
0.00487783
0.0192844
0.00485721
0.00413394
0.00403385
0.0049878
0.0526368
0.0317059
0.00776056
0.0373801
0.0517589
0.00465517
0.0127812
0.0684706
0.0360804
0.0273897
0.000860841
0.00798106
0.0352777
0.0422419
0.00934582
0.0108254
0.0301263
0.0146905
0.0104684
0.00191962
0.0019227
0.00181685
0.00209831
0.00230679
0.0124658
0.00731325
0.00228119
0.00260656
0.00224988
0.0017574
0.000635107
0.00205547
0.00351995
0.00647506
0.00119051
0.010082
0.0132613
0.00547784
0.00190091
0.0226183
0.0134422
0.00806482
0.00720774
0.01667
0.000521574
0.000583338
0.000163753
0.000585497
0.000530296
0.00105892
0.00021121
0.000408425
0.000910022
0.00828549
0.00150963
0.00147003
0.0020985
0.00129649
0.00137142
0.00349305
0.00145456
0.00101451
0.00111669
0.00082436
0.000658755
0.00126136
0.00101926
0.00499045
0.00466761
0.00497542
0.00499939
0.00459471
0.0047673
0.00505881
0.00486431
0.00485997
0.00482829
0.00496069
0.00471931
0.00459784
0.00479987
0.0120566
0.0123999
0.0167175
0.0162482
0.0171385
0.0172844
0.0119862
0.0106584
0.0142573
0.015155
0.0123695
0.0153515
0.0132157
0.0138067
0.00246926
0.00259719
0.00233884
0.00349537
0.0148268
0.0138943
0.0108713
0.0149074
0.00162549
0.00489913
0.00532896
0.0046251
0.00864024
0.00274479
0.00392744
0.254089
0.293863
0.0332634
0.00280134
0.0968589
0.303986
0.367491
0.0153545
0.0164871
0.012191