/*--------------------------------*- C++ -*----------------------------------*\
  =========                 |
  \\      /  F ield         | OpenFOAM: The Open Source CFD Toolbox
   \\    /   O peration     | Website:  https://openfoam.org
    \\  /    A nd           | Version:  10
     \\/     M anipulation  |
\*---------------------------------------------------------------------------*/
FoamFile
{
    format      ascii;
    class       volScalarField;
    location    "3";
    object      nut;
}
// * * * * * * * * * * * * * * * * * * * * * * * * * * * * * * * * * * * * * //

dimensions      [0 2 -1 0 0 0 0];

internalField   nonuniform List<scalar> 
75457
(
0.0412742
0.0195815
0.0221763
0.00746328
0.0433349
0.019606
0.0430774
0.0172766
0.0159273
0.0159861
0.016098
0.0313337
0.0395146
0.0180367
0.000340996
0.000324971
0.000369939
0.000364155
0.000331632
0.000290722
0.000323267
0.000346621
0.000362513
0.000336005
0.000339888
0.000348323
0.000345156
0.000188057
0.00085702
0.000172821
8.10695e-05
0.00144827
0.00160974
0.000264006
0.000229187
0.000461961
0.000313781
0.0022175
0.00149569
0.000608785
0.000850591
0.00054071
0.000300581
0.000428179
0.00046488
0.000296382
0.0002985
0.000358112
0.0629151
0.0163918
0.0440761
0.0627971
0.0728664
0.0444489
0.0197414
0.0217445
0.095173
0.0833703
0.0691936
0.0108657
0.0724154
0.0691215
0.0520243
0.0445237
0.00819716
0.0412639
0.0131733
0.045419
0.0571562
0.0116286
0.0566916
0.0126955
0.0470553
0.00369005
0.0565166
0.0184816
0.0182637
0.130269
0.112528
0.0772917
0.129911
0.136296
0.107506
0.0817017
0.062231
0.0485202
0.0284235
0.0311129
0.123223
0.110238
0.0821027
0.0416377
0.113892
0.0865544
0.125646
0.0555446
0.0557717
0.0661852
0.0105202
0.0979416
0.0705552
0.0955153
0.00524867
0.00319057
0.00101379
0.0013566
0.00898115
0.0021769
0.0101473
0.0428377
0.0665932
0.00812241
0.00808524
0.0517504
0.0138557
0.0848973
0.0116481
0.04977
0.052082
0.013653
0.00290917
0.0105416
0.0113891
0.0289958
0.0585199
0.0356759
0.00756697
0.0681057
0.0741269
0.0128571
0.0246326
0.130381
0.0415937
0.0962202
0.154362
0.0566399
0.0512375
0.136341
0.124306
0.00994331
0.0269817
0.0456864
0.0663556
0.029262
0.0364188
0.100138
0.0789104
0.057362
0.0650343
0.116919
0.0116815
0.108043
0.0573247
0.0481473
0.0609793
0.0636658
0.12967
0.0076817
0.0638573
0.109368
0.00828583
0.0549947
0.114169
0.000866859
0.000870757
0.000861794
0.00088199
0.000872777
0.000871126
0.000865205
0.000855913
0.000882058
0.000847641
0.000867566
0.000870279
0.000868197
0.0595644
0.0728163
0.0923226
0.0883266
0.215527
0.00522491
0.145767
0.0638255
0.0077047
0.0662596
0.179484
0.0731529
0.0676618
0.0147048
0.0836341
0.00431646
0.0609026
0.058655
0.0447205
0.0128354
0.025154
0.0462038
0.0361251
0.0322544
0.0220714
0.0724409
0.080512
0.00744988
0.0736461
0.0701488
0.067195
0.121883
0.111056
0.108303
0.0977805
0.0975748
0.0112195
0.0117715
0.101618
0.0792023
0.0127343
0.08923
0.0132664
0.0136458
0.0588705
0.0965933
0.0684171
0.00808077
0.0735235
0.0747696
0.0126066
0.0616302
0.0871727
0.00730648
0.0434429
0.0397004
0.058438
0.0651841
0.0789807
0.0752461
0.100622
0.0394324
0.0413498
0.0478698
0.0509227
0.0935053
0.00724763
0.0945097
0.0645772
0.0725092
0.066641
0.0787517
0.0827052
0.0103183
0.0758221
0.0074059
0.023368
0.00188234
0.0722916
0.000764987
0.00243871
0.00530406
0.00849846
0.00223463
0.00181465
0.00196629
0.00580239
0.012762
0.0737187
0.0146781
0.0656194
0.0142899
0.0133908
0.0628055
0.0105139
0.0702146
0.0982481
0.0849239
0.0713973
0.0845286
0.0739701
0.0613846
0.00847062
0.0671587
0.0826402
0.00594279
0.0817762
0.00633524
0.0728707
0.00520227
0.0831585
0.0316891
0.034553
0.0623007
0.0457914
0.0569297
0.106674
0.00849755
0.065341
0.0110671
0.0658161
0.0988072
0.104141
0.00926862
0.109081
0.0540691
0.0112565
0.0533022
0.0525135
0.0971212
0.00251327
0.1009
0.0567302
0.00706048
0.0891104
0.0448438
0.0513964
0.0490565
0.0642087
0.11329
0.068375
0.0488945
0.0523502
0.0115773
0.0475709
0.0753828
0.0777457
0.0706131
0.023937
0.0671801
0.0478508
0.0484077
0.0826801
0.0679133
0.0359056
0.0392988
0.0830773
0.00790637
0.0610808
0.0606438
0.118091
0.115003
0.0133129
0.09019
0.108224
0.00905628
0.0059264
0.0380915
0.0268266
0.0480123
0.0144437
0.0110413
0.0181238
0.0226257
0.0307867
0.048562
0.0442308
0.0679748
0.0961078
0.133651
0.124824
0.0205652
0.0880404
0.115137
0.0159097
0.0119392
0.0174841
0.0112289
0.0271584
0.0275655
0.0385156
0.0399569
0.0509599
0.0450494
0.0701501
0.0492182
0.0550053
0.0683761
0.0133181
0.0626343
0.0635891
0.0736134
0.00619258
0.0427815
0.0484895
0.073741
0.0112932
0.0122247
0.0500416
0.215056
0.0641237
0.0741974
0.0278581
0.0250145
0.0556186
0.000845351
0.000846622
0.000834416
0.000829476
0.000858264
0.000847994
0.000839765
0.000854468
0.000839688
0.00082902
0.000832744
0.000819992
0.000820835
0.00081925
0.000828522
0.000823559
0.000818961
0.000821863
0.000849248
0.000845008
0.000843712
0.00081058
0.000808087
0.000802294
0.000852882
0.00084978
0.000822742
0.000817523
0.000804954
0.000830472
0.000837021
0.00078244
0.00080403
0.000817486
0.00081761
0.000813926
0.000820993
0.000828236
0.000832912
0.00079277
0.00080206
0.000796404
0.0008046
0.000808847
0.000825093
0.000815328
0.000836254
0.000834548
0.000838871
0.000823697
0.000836924
0.000835444
0.000827769
0.0130218
0.00150013
0.00182327
0.00126851
0.00176536
0.00854799
0.00231302
0.00368229
0.00104687
0.00925047
0.000188953
0.00173877
0.00301962
0.00333201
0.00208299
0.0188527
0.0288612
0.0275979
0.0355411
0.0215879
0.0133734
0.0140037
0.0244476
0.0170358
0.0170593
0.01578
0.0365897
0.0260441
0.0379683
0.0184616
0.0170668
0.000192252
0.00203348
0.00237283
0.0117047
0.0152712
0.00994022
0.00572434
0.00318228
0.00244774
0.00259513
0.00259917
0.0109111
0.0137187
0.0132243
0.00721325
0.0371602
0.0112693
0.00727507
0.00907986
0.000855965
0.000858577
0.00086842
0.000848824
0.000850644
0.000867995
0.000860253
0.000829613
0.000860229
0.000855519
0.000864652
0.000887601
0.00087647
0.000852965
0.000848781
0.000851148
0.000846551
0.000845873
0.000847735
0.000843253
0.000847689
0.000843881
0.0008526
0.000844423
0.000842579
0.000847834
0.000858466
0.000843499
0.000847583
0.00084878
0.000853517
0.000860806
0.000854623
0.00105019
0.000992002
0.000930762
0.000967339
0.000957826
0.000933657
0.000638272
0.00109434
0.000925271
0.000925899
0.000946591
0.000922424
0.000934664
0.000932491
0.000974861
0.0009157
0.000679076
0.00428996
0.00565644
0.00567403
0.00612939
0.00156435
0.00279163
0.00343986
0.0044721
0.0023566
0.000653471
0.00575783
0.00669925
0.00511788
0.00199542
0.00200532
0.00681321
0.00549793
0.00546606
0.000686526
0.00105325
0.00167995
0.00286265
0.000222406
0.00288406
0.000519387
0.000954611
0.000669541
0.00184134
0.00205711
0.000446759
0.000409014
0.000443873
0.000631672
0.000640418
0.000260733
0.000388994
0.0003714
0.000203687
0.000669121
0.000817198
0.000673364
0.000338266
0.000435689
0.000626709
0.000699574
0.000331174
0.000451183
0.000878897
0.000360666
0.000364316
0.000769819
0.000776778
0.000791566
0.000859006
0.000851659
0.000784822
0.000788846
0.00085486
0.000824705
0.000856209
0.000802301
0.000842055
0.00134548
0.000706722
0.00207948
0.000689766
0.00175032
0.000983543
0.00197544
0.00227315
0.00121375
0.000753087
0.00220235
0.000545133
0.000456444
0.000532235
0.00149285
0.000582707
0.000245553
0.00213488
0.000158513
0.00136335
0.00422548
0.00230501
0.00331455
0.00361059
0.00374402
0.0015554
0.000928388
0.000130847
0.00616312
0.000528098
0.000821427
0.00134182
0.000873255
0.00134832
0.0079345
0.00413867
0.000170667
0.0136146
0.0102124
0.00182529
0.000172406
0.00204758
0.000215719
0.000493445
0.000713103
0.000286843
0.00458554
0.0123744
0.0105997
0.0116884
0.00376281
0.000679322
0.000395568
0.000401706
0.000262799
1.42621e-05
0.000327764
0.000449895
0.00052265
0.000355052
0.000355062
0.000315642
0.000375491
0.000358243
0.000359455
0.000421469
0.000376113
0.000390054
0.000423323
0.000380121
0.000405015
0.000369861
0.00034652
0.000347617
0.000344125
0.000341406
0.000376576
0.000364008
0.000347547
0.000348344
0.000345747
0.000342422
0.000348968
0.0180729
0.0346343
0.0352715
0.00329097
0.0106625
0.0269909
0.0147971
0.00828261
0.00882761
0.0347651
0.0271944
0.0347281
0.0420956
0.0359793
0.0312369
0.0332956
0.0306538
0.0311997
0.0289366
0.0287079
0.0224086
0.0321834
0.0392155
0.0390864
0.0258432
0.035281
0.0349217
0.0335373
0.0271039
0.0291015
0.025873
0.0285942
0.00152407
0.0017003
0.00750119
0.00448375
0.00339532
0.000318597
0.00348015
0.00143281
0.00336243
0.0224406
0.0317278
0.0365119
0.00363655
0.0299643
0.0500842
0.0238931
0.0372378
0.00239919
0.00723168
0.011979
0.0216189
0.000716061
0.00455616
0.0237673
0.0141126
0.000471054
0.0329727
0.00345082
0.0198863
0.0118576
0.0146304
0.037658
0.0304037
0.0594543
0.0699233
0.0557892
0.0424443
0.0323259
0.0593634
0.0548125
0.061476
0.000757579
0.00158018
0.000130246
0.000459802
0.000360445
0.000302166
0.000446986
0.000656132
0.00922416
0.000402845
0.00151224
0.00213331
7.55349e-05
0.000113394
0.00844762
0.00184446
0.00169886
0.00155314
0.00382204
0.0087037
0.00958061
0.00220929
0.00049865
0.000281548
0.000566778
0.000800337
0.000323077
0.000529346
0.000534805
0.00117897
0.000791656
0.000413613
0.000347118
0.000366687
0.000546128
0.000988308
0.000646516
0.000562749
0.000466184
0.000399061
0.000272082
0.000600675
0.00208903
0.0142554
0.000106118
0.000881696
0.00511318
0.0110307
0.000644543
0.000333259
0.00245247
0.0012851
0.00128169
0.00372212
0.00387056
0.0104447
0.00166924
0.00141371
0.00170278
0.00966717
0.000886743
0.000682355
0.00300929
0.000392135
0.00453362
0.0122768
0.000241076
0.000302593
0.000804769
0.00168548
0.000434864
0.00079576
0.00142577
0.00363782
0.0054351
0.00423761
0.000293655
0.000400577
0.000318903
0.000877692
0.000351509
0.000643695
0.000599311
0.000533424
0.00056299
0.00055851
0.000434252
0.000420797
0.000528815
0.000540603
0.00054365
0.000527219
0.000422426
0.000520968
0.000539446
0.000825129
0.000806504
0.000826717
0.000822245
0.000822611
0.000793637
0.000811996
0.000820787
0.000849758
0.00085556
0.00916363
0.00666137
0.00601831
0.0150525
0.00264922
0.00131915
0.0130223
0.0222221
0.00369675
0.00779842
0.0124277
0.014992
0.00983433
0.00382292
0.0133246
0.0155368
0.00152303
0.0189603
0.0199434
0.0163183
0.0267991
0.0230448
0.0160166
0.0312193
0.027198
0.0251813
0.0232251
0.0149092
0.0172848
0.0207851
0.0185693
0.0273583
0.0217731
0.0209395
0.0161077
0.0218789
0.0201137
0.000504579
0.000845149
0.000510772
0.000403138
0.000877288
0.00550878
0.00577266
0.00107348
0.000741058
0.000711216
0.00569352
0.00697634
0.000387551
0.00365864
0.00469271
0.00779188
0.055188
0.060272
0.0597602
0.0573537
0.0334974
0.0399708
0.0386192
0.0560082
0.0563589
0.0539036
0.0331155
0.0437378
0.0499074
0.000502399
0.000522837
0.00056199
0.000685562
0.000611391
0.000511337
0.000540368
0.000468461
0.000515227
0.000723819
0.000599418
0.00048447
0.00951529
0.0230637
0.0162897
0.0123971
0.0225779
0.0201054
0.00824418
0.00718112
0.00826377
0.010494
0.000356208
0.000111064
0.000499574
0.00035263
0.000386157
0.00424151
0.0178404
0.000619386
0.00532735
0.00309993
0.00245862
0.00264943
0.00253048
0.00279919
0.000606488
0.000931035
0.00221406
0.00218608
0.00111916
0.00132968
0.00137089
0.000328976
0.00113823
0.000995561
0.000976823
0.000989222
0.00109256
0.000463235
0.0327742
0.0474002
0.0310142
0.0299512
0.0340418
0.0366616
0.039571
0.0424818
0.0372717
0.0476365
0.0524
0.0520618
0.027635
0.0362417
0.0299508
0.043384
0.0148889
0.0322437
0.02697
0.0153569
0.00239817
0.00447331
0.00577229
0.00278399
0.00244588
0.00230491
0.0203684
0.0143295
0.00401204
0.0107278
0.00651436
0.00507953
0.0160233
0.0839469
0.0826736
0.0806146
0.0135729
0.0857613
0.0286578
0.0197074
0.0349554
0.04147
0.0354277
0.0201155
0.0619611
0.0907389
0.0932657
0.0682341
0.0767001
0.0776831
0.0242302
0.0758293
0.00200512
0.00121889
0.00100591
0.000921499
0.00115543
0.000802849
0.000859254
0.000899432
0.000913143
0.00202645
0.00224369
0.00125786
0.00116326
0.000848817
0.00215319
0.0044043
0.00644117
0.00869416
0.0100471
0.0188852
0.01312
0.0153227
0.00260956
0.0166688
0.0188932
0.0175397
0.0132819
0.0178372
0.0242111
0.00156605
0.00262934
0.00110971
0.00165514
0.00134931
0.00189734
0.00101616
0.00059288
0.00228688
0.00066722
0.00127168
0.000608906
0.000651856
0.000574699
0.000487046
0.000522137
0.00385003
0.0041811
0.00349271
0.00339842
0.0180021
0.0198005
0.00350948
0.019283
0.00953145
0.00138818
0.0176161
0.0283173
0.038573
0.0132495
0.0162922
0.0199795
0.022088
0.0333886
0.0310137
0.000586066
0.00215776
0.00156238
0.00100164
0.00066287
0.00168867
0.00185645
0.00153388
0.00195545
0.00193708
0.000541303
0.0008609
0.00131106
0.000704795
0.00125631
0.00126617
0.0018
0.00114652
0.000875709
0.00094456
0.000914135
0.00315437
0.000521068
0.00210249
0.00294613
0.00193317
0.00165616
0.00146465
0.00960727
0.000561101
0.00085821
0.00345425
0.00303702
0.0016594
0.00145955
0.00342041
0.00388353
0.00160122
0.00314111
0.0011254
0.000878563
0.00091187
0.00102799
0.00417005
0.00108316
0.00181998
0.00158923
0.00113205
0.00150508
0.00133114
0.00114881
0.00575543
0.00153968
0.00755101
0.00634763
0.00461466
0.00292798
0.0602891
0.126277
0.0110569
0.107708
0.054069
0.0602102
0.0522044
0.0071751
0.00894366
0.0403248
0.0624049
0.0595497
0.00983769
0.0591454
0.0717021
0.0294623
0.0619437
0.0450507
0.0394104
0.0661819
0.0716511
0.0619652
0.0377976
0.0346044
0.0337871
0.0818588
0.0112173
0.0742799
0.0133843
0.0330301
0.0342852
0.0327849
0.0271355
0.0312331
0.0573829
0.0557237
0.0509782
0.00198586
0.00425623
0.000946907
0.00202485
0.00184624
0.00047027
7.49505e-05
0.00145224
0.000393658
0.000284787
0.000292477
0.000311581
0.00038863
0.000500855
0.000354461
0.000352208
0.0214499
0.0111133
0.0329928
0.036709
0.0699071
0.0621194
0.0110033
0.0706905
0.0692227
0.089779
0.0770444
0.102042
0.0328891
0.0870055
0.013261
0.0852513
0.0111989
0.0453786
0.0109002
0.0817932
0.00959437
0.0806648
0.0540021
0.0289768
0.060337
0.0211982
0.0836137
0.0100298
0.0698099
0.00501645
0.0313836
0.0379304
0.0111716
0.0286656
0.0588756
0.0665903
0.0791396
0.0926614
0.0722252
0.152911
0.00999851
0.0526013
0.0683498
0.0143017
0.0673871
0.0857107
0.0496586
0.102295
0.0124907
0.0960277
0.039435
0.0793699
0.0102942
0.0460221
0.0162035
0.0834425
0.0161475
0.0745592
0.0118841
0.0751347
0.0285979
0.0373081
0.0726962
0.0719691
0.0390471
0.0281341
0.0340629
0.0274319
0.00955663
0.0195274
0.0126852
0.0255204
0.0290915
0.00413151
0.00763509
0.00636206
0.017615
0.0259351
0.0146989
0.0114113
0.00197257
0.0238101
0.0211346
0.016236
0.0174964
0.00873344
0.00816552
0.0115967
0.012029
0.0229785
0.0547683
0.0100837
0.0134478
0.0159351
0.067027
0.0778033
0.045279
0.000912548
0.000903285
0.0009159
0.0009632
0.000909719
0.00087956
0.00324497
0.00362636
0.00547866
0.00289175
0.000133276
0.000998394
0.00138286
0.000813285
0.00253452
0.00235749
0.00715539
0.00244661
0.000567711
0.000684648
0.00778072
0.00832093
0.0153089
0.0140115
0.00589217
0.00363823
0.00645721
0.00335337
0.0180068
0.0172237
0.00903564
0.00589772
0.00365215
0.00165294
0.00888845
0.0105951
0.0111943
0.0114722
0.0131534
0.00281837
0.000735936
0.0017501
0.000493056
0.0277398
0.0288781
0.00942863
0.0115071
0.00112108
0.000675442
0.0149283
0.00647451
0.000812626
0.0218001
0.0380508
0.0158576
0.00373112
0.0142993
0.00826157
0.0169405
0.000825724
0.000288214
0.016124
0.00027792
0.00792519
0.061938
0.0698958
0.0535191
0.0336131
0.0163793
0.0280321
0.000905879
0.0329076
0.0321931
0.0602314
0.0137451
0.00373788
0.00144535
0.0228551
0.0270331
0.0218775
0.0208724
0.0199662
0.011499
0.0327093
0.0139667
0.0177145
0.0115708
0.0316568
0.0400856
0.0669114
0.0612871
0.0290512
0.0359092
0.0567472
0.000961117
0.000974093
0.00102926
0.0011485
0.000998222
0.000979172
0.00166039
0.000964401
0.00109374
0.000757684
0.000973317
0.000948213
0.00101742
0.00104134
0.00110079
0.00110482
0.00107259
0.00101003
0.000998626
0.00103559
0.0825554
0.0899002
0.071618
0.0923522
0.0547949
0.0579955
0.022956
0.0416078
0.0888209
0.0748702
0.00997969
0.0922857
0.0391872
0.0337377
0.0771205
0.0701433
0.00987743
0.0763922
0.0124717
0.0665549
0.000715933
0.00118834
0.0013297
0.000983355
0.000885753
0.000944386
0.00101608
0.000990205
0.00104067
0.000994212
0.000939757
0.00106825
0.00105234
0.000771025
0.00106379
0.000945413
0.00141977
0.106484
0.0730103
0.114193
0.0113211
0.0653092
0.0810166
0.0715212
0.0849305
0.0186616
0.0822884
0.0419272
0.0620211
0.000989428
0.000905644
0.000595017
0.000285374
0.000873322
0.000720015
0.000704548
0.000491819
0.000355269
0.000900044
0.000702944
0.000371456
0.00444491
1.93052e-05
0.00170066
8.07651e-05
0.00242134
0.00812164
7.19038e-05
0.00502856
0.00712836
0.0283183
0.0258975
0.0012385
0.00194606
0.0392294
0.0300382
0.041933
0.00162519
0.00367423
0.00622929
0.00138418
0.00312709
0.00367688
0.00142078
0.0121901
0.00359987
0.00544334
0.00176133
0.0102172
0.0294189
0.00810827
0.0122514
0.0205464
0.0574442
0.000904716
0.00304119
0.0429633
0.0667311
0.00775834
0.00185175
0.018335
0.0397332
0.0129884
0.0232127
0.0290167
0.0313448
0.0186987
0.015056
0.0327149
0.0281119
0.0247774
0.0117741
0.00207053
0.0232996
0.0102544
0.00978177
0.00386727
0.00203052
0.00355769
0.00419802
0.00847447
0.000222457
0.000675752
0.00025193
0.000364176
0.012253
0.0117879
0.00248811
0.000243666
0.00164535
0.00528826
0.0144281
0.0143235
0.0015685
0.000488678
0.000716057
0.0187578
0.0108265
0.0630056
0.0514756
0.0173774
0.0572238
0.045084
0.0332415
0.0162638
0.00275803
0.000166269
0.00207448
0.00731076
0.00070387
0.000960198
0.000971113
0.000443012
0.00148519
0.000961269
0.000933629
0.000978627
0.000975842
0.000569716
0.000556963
0.000890995
0.000911954
0.00103637
0.000778328
0.00074361
0.00103886
0.000832099
0.00274518
0.00191571
0.00202972
0.00190214
0.00177021
0.0331986
0.0420016
0.00344521
0.0120842
0.0245921
0.00661025
0.0130085
0.0116056
0.00570302
0.00864562
0.00389026
0.00031047
0.00649983
0.059837
0.0565826
0.0406446
0.0143001
0.0191287
0.0550024
0.0522958
0.0290045
0.0283636
0.0289202
0.0164361
0.0197193
0.030803
0.0195099
0.0168105
0.0243629
0.0138073
0.0093712
0.0257641
0.0369387
0.0238535
0.024986
0.00438493
0.00181166
0.00116362
0.00495463
0.00506295
0.00176853
0.00115115
0.00119792
0.00965299
0.001354
0.00340699
0.00340956
0.00654642
0.003209
0.00090638
0.00084996
0.0528233
0.037674
0.043236
0.0553627
0.0476529
0.0410176
0.0686222
0.0590522
0.0641313
0.0715641
0.00989206
0.0656924
0.0439196
0.0695593
0.0435507
0.0545335
0.0680258
0.0956698
0.0162125
0.0693581
0.0875104
0.0180332
0.0828656
0.0148958
0.0771122
0.0687652
0.0503129
0.0377788
0.0129896
0.0782498
0.070501
0.0105897
0.0334025
0.084662
0.0209374
0.0648763
0.0669048
0.0196225
0.0180365
0.0100306
0.0685103
0.0116771
0.0121383
0.00718235
0.0152398
0.0112813
0.0113508
0.0207301
0.0151546
0.00769434
0.0130585
0.0111518
0.0382963
0.0674285
0.0612735
0.0141313
0.0295186
0.0248603
0.0184466
0.0101243
0.0235122
0.0319042
0.0519922
0.0952925
0.0318821
0.0344283
0.0390408
0.0759398
0.0693324
0.116305
0.0898535
0.0777871
0.0340489
0.0590388
0.0843793
0.0642648
0.00980091
0.00890604
0.0600676
0.0638533
0.0616917
0.0122119
0.0869869
0.0647021
0.0652896
0.0710134
0.0913434
0.00830101
0.036437
0.0375144
0.0293467
0.0765
0.0726187
0.0595785
0.010653
0.0655356
0.0734391
0.0693044
0.0283741
0.08397
0.0891807
0.0422147
0.0408256
0.0851463
0.0712422
0.0638747
0.0088561
0.0957424
0.0655769
0.0464754
0.0422284
0.0663873
0.0465039
0.0280075
0.0242942
0.0133255
0.0269445
0.016959
0.00481115
0.0120257
0.0407233
0.00524696
0.00432209
0.0174879
0.017532
0.0013059
0.00499388
0.00785959
0.00328785
0.00260603
0.000381502
0.000371296
0.000494083
0.000501563
0.00182606
0.000709091
0.000368517
0.000337708
0.000424157
0.000410355
0.000400239
0.000318594
0.000428691
0.000607365
0.000301841
0.00035714
0.000514158
0.000622003
0.000532813
0.00885352
0.00754442
0.000218017
0.00234479
0.00161516
0.00138962
0.00125477
0.00112892
0.000357737
0.000242135
0.00113317
0.00142275
0.000198372
5.50453e-05
0.000781429
0.00119151
2.33482e-06
0.000269342
0.000248518
0.000489669
0.000366518
0.00542369
0.0118775
0.0104564
0.0135233
0.00619833
0.00677836
0.062718
0.00894096
0.0126048
0.0637224
0.0299255
0.00453615
0.0231174
0.0228908
0.127458
0.0373834
0.100992
0.0193521
0.00254756
0.0161619
0.0767005
0.0680781
0.00290619
0.015465
0.0142077
0.00640821
0.0561278
0.0500238
0.0669982
0.00404381
0.00625764
0.0566216
0.0736994
0.00284035
0.00418351
0.00406038
0.00465884
0.00761571
0.0142597
0.000653145
0.0729265
0.0724059
0.0107624
0.00871375
0.0285281
0.0523798
0.0684367
0.0520822
0.0600113
0.0606678
0.0683074
0.0710017
0.0131713
0.0827393
0.0117994
0.0451852
0.0633515
0.0406328
0.00058169
0.000552178
0.000784153
0.000533374
0.000260858
0.000957888
0.000684667
0.000518163
0.00137376
0.00166649
0.00142563
0.0010375
0.00061718
0.00104163
0.00637821
0.00991962
0.00383578
0.00533779
0.0120249
0.00523917
0.0048968
0.0247572
0.03827
0.0273448
0.0398076
0.0184249
0.0145853
0.018384
0.00338131
0.00159934
0.00478499
0.00162123
0.00127247
0.0225765
0.00406183
0.143671
0.073138
0.0114807
0.0265751
0.112079
0.100022
0.00660765
0.0402143
0.0176644
0.0212343
0.0404406
0.058203
0.00144379
0.0016943
0.000972143
0.00119077
0.00128445
0.00111235
0.00119078
0.001133
0.000940398
0.000894249
0.0822891
0.010113
0.0738335
0.0123595
0.0410621
0.0370845
0.0363275
0.0476101
0.0636715
0.0661783
0.0787432
0.0829853
0.0761662
0.0301506
0.0352833
0.0173718
0.0645811
0.0734394
0.0306055
0.0313857
0.0256565
0.0376353
0.0399152
0.0711003
0.0314556
0.0446175
0.0555322
0.0107718
0.0614692
0.0129953
0.0261305
0.0100411
0.0411699
0.0100411
0.0611717
0.00319723
0.0107335
0.0673374
0.0575129
0.050084
0.000871865
0.000870761
0.000872777
0.000873174
0.000871849
0.000869613
0.000873125
0.000870535
0.000865845
0.00086507
0.000876034
0.000869386
0.000865522
0.000868268
0.000876748
0.000887116
0.000872519
0.000877215
0.000864897
0.0303572
0.0292533
0.0273407
0.0238955
0.0382895
0.0292458
0.0503943
0.0496265
0.0251578
0.0525458
0.0348144
0.029406
0.038373
0.0257321
0.040542
0.0299734
0.0358131
0.0136691
0.000947884
0.00096477
0.000971701
0.000934865
0.000953589
0.000971103
0.000977177
0.000977712
0.000965946
0.0010287
0.000994199
0.000981946
0.000994949
0.00100983
0.00102786
0.00102215
0.000853337
0.00084652
0.000842204
0.000848685
0.000852878
0.00085069
0.000845359
0.000850595
0.000846916
0.000844191
0.000849901
0.000847124
0.000852118
0.00084535
0.000871788
0.000851538
0.000852159
0.000847803
0.000865295
0.000858851
0.000850151
0.000877451
0.000866664
0.000860074
0.000841801
0.000883694
0.00088687
0.000858673
0.000862217
0.000917438
0.000855981
0.000894889
0.000891468
0.00062633
0.000859848
0.000879676
0.000864319
0.000856858
0.000886387
0.000838558
0.000865189
0.0008639
0.000889417
0.000867228
0.000886635
0.000890534
0.000885533
0.00087942
0.00088093
0.000880074
0.000880464
0.000901375
0.000892305
0.000887223
0.000889065
0.000890477
0.000882601
0.000873736
0.00088626
0.000884705
0.000899987
0.000890324
0.000896721
0.000893249
0.0505364
0.0507634
0.0479028
0.0416878
0.0469632
0.0468944
0.0532547
0.0478954
0.0509908
0.0406446
0.0369954
0.0597757
0.0543871
0.0501162
0.0555374
0.0641091
0.05296
0.052491
0.0599205
0.0658739
0.0625718
0.0592599
0.063438
0.070057
0.0573073
0.0665487
0.0732514
0.0724125
0.039006
0.0424496
0.0415217
0.0704325
0.0623556
0.000908953
0.000909795
0.000895895
0.000939239
0.000914131
0.000908539
0.000864747
0.000884063
0.000888623
0.000882069
0.000883116
0.000895243
0.000895024
0.000894415
0.000873956
0.000936412
0.00159757
0.00212468
0.00159756
0.00147439
0.00388045
0.00212217
0.00180833
0.00154115
0.000881688
0.000888274
0.00088317
0.000881514
0.000891661
0.000880784
0.000880568
0.000891089
0.000882515
0.000867351
0.000872169
0.000854783
0.000865743
0.000883708
0.000877976
0.000870913
0.000848503
0.000856027
0.000898974
0.00088611
0.000883774
0.000832572
0.000446916
0.00123528
0.00043065
0.000524441
0.00107828
0.00159935
0.00057823
0.000421607
0.000344669
0.000439216
0.000360928
0.000467934
0.000486198
0.000256121
0.000343955
0.000639878
0.000841455
0.00129913
0.000522018
0.00125956
0.000825939
0.000840818
0.000772512
0.000882948
0.000946605
0.000862769
0.000901204
0.000926098
0.000867569
0.000846557
0.000814423
0.000808532
0.000797645
0.000894234
0.000873405
0.000925064
0.000911665
0.000880613
0.000879721
0.000877588
0.000845637
0.000922681
0.000815416
0.000899399
0.000910103
0.000824332
0.00162021
0.00239949
0.00243429
0.00188288
0.00127163
0.0010857
0.000716753
0.000933058
0.00262367
0.00117693
0.00240811
0.00156484
0.001404
0.000530015
0.000542827
0.00141418
0.000721444
0.000687116
0.000625572
0.000633215
0.000650008
0.000963679
0.000708033
0.00143414
0.000718848
0.000902393
0.000825724
0.00093227
0.000977445
0.00107725
0.000533639
0.000459384
0.000436557
0.00187398
0.00200665
0.00208662
0.00112237
0.000958697
0.00119326
0.00114235
0.00119443
0.00102701
0.0021866
0.0010476
0.000802951
0.000814391
0.00085818
0.000796998
0.000772979
0.000790354
0.000784597
0.000792454
0.000833342
0.000796284
0.000834205
0.000761981
0.000801761
0.000851557
0.000857555
0.000853667
0.000833597
0.000853401
0.000860368
0.000862625
0.000849771
0.000838755
0.000865112
0.00084066
0.00086038
0.000857362
0.000646591
0.00059025
0.000662297
0.000573265
0.000540131
0.000543958
0.000616788
0.000605825
0.000567265
0.00073148
0.00071739
0.000582106
0.000686376
0.000439301
0.000417813
0.00045848
0.000406787
0.00040127
0.000420277
0.000403896
0.00043766
0.000464243
0.000380161
0.00039971
0.000427826
0.000258313
0.000267243
0.000405233
0.000258882
0.00028659
0.000293678
0.00048525
0.00155867
0.000454282
0.00017957
0.00260893
0.00237769
0.00574046
0.0010182
0.00159289
0.000474485
0.000502441
0.00184722
0.000698769
0.000557331
0.00208314
0.0006253
0.00194919
0.000743057
0.00352549
0.000750546
0.000501576
0.000743369
0.00307503
0.000604431
0.000276025
0.00065868
0.000838034
0.011655
0.0146702
0.0102903
0.0068552
0.00756329
0.00914735
0.0134308
0.00985196
0.00791255
0.00899524
0.0135843
0.000834519
0.000833191
0.000845399
0.000838836
0.000834358
0.000835062
0.000838342
0.00083794
0.000836841
0.000838264
0.00083646
0.000833285
0.000838441
0.000694172
0.000919373
0.000274672
0.000919934
0.000411703
0.000946448
0.000769342
0.00104891
0.000978592
0.000904337
0.00087126
0.00090892
0.000988619
0.000954541
0.00114046
0.000860878
0.000901143
0.000963309
0.0010167
0.000949165
0.000891625
0.000936297
0.000741215
0.000795902
0.000703614
0.000516037
0.00098721
0.000722917
0.000701024
0.000958924
0.000699551
0.000810134
0.000820998
0.000827966
0.000841649
0.000803052
0.00076871
0.000824251
0.000828391
0.000847758
0.000834276
0.000874552
0.000832061
0.000866126
0.000857379
0.000845382
0.000837479
0.000840287
0.000820699
0.00101643
0.00086176
0.000873123
0.000927929
0.000924464
0.000939337
0.000914022
0.000913543
0.000933235
0.000942565
0.000925795
0.000935419
0.000930399
0.000917845
0.000935267
0.000914044
3.81997e-05
0.00066114
0.000604637
0.000325705
0.000548881
0.000564578
0.000559196
0.000600574
0.000593831
0.000538154
0.000566645
0.000594957
0.000948112
0.000554511
0.000599403
0.000367785
0.00061085
0.000170791
0.000806888
0.00130493
0.000512831
0.000728084
0.000726439
0.000766712
0.000855885
0.000700538
0.000662299
0.000831519
0.00117343
0.00123135
0.00221879
0.00155597
0.00168024
0.000594916
2.46641e-05
0.00166449
0.000902191
0.000869933
0.000763962
0.00893501
0.00757499
0.00784811
0.00738677
0.00879009
0.00774615
0.00385287
0.00398947
0.00676229
0.00402594
0.0031501
0.00737118
0.00339513
0.0025552
0.00205006
0.00206405
0.00319913
0.00569892
0.00397388
0.00299415
0.00440605
0.00235226
0.00252497
0.00322577
0.00516313
0.00455933
0.00489553
0.00056911
0.000350697
0.000307237
0.000662262
0.000382569
0.0125215
0.000873334
0.00913976
0.00595928
0.0162548
0.00234541
0.00213175
0.0275461
0.0271678
0.0153449
0.0353321
0.0408956
0.00929177
0.0252507
0.00402247
0.0270661
0.0214709
0.0183259
0.0198829
0.00968839
0.000596979
0.00267298
0.0234104
0.0142518
0.00158727
0.00126686
0.0193272
0.0206875
0.00391216
0.00176338
0.00123787
0.00390956
0.00661904
0.0073931
0.0068346
0.0115162
0.00803207
0.00821352
0.00665767
0.0094126
0.00745868
0.00450823
0.0113666
0.00673823
0.00354572
0.00414566
0.00237169
0.0093639
0.00700203
0.00926761
0.00533472
0.00762396
0.0106905
0.0248602
0.0359944
0.0159379
0.017833
0.0253963
0.0168354
0.0153492
0.0294257
0.0467781
0.0480527
0.0214895
0.0342342
0.0407861
0.0346139
0.00295277
0.001806
0.00540451
0.00408026
0.000649481
0.000284398
0.00242418
0.00155106
0.00644145
0.0065831
0.00669438
0.00158791
0.000571488
0.000345731
0.000882751
0.00246426
0.00382606
0.0042704
0.00967578
0.0210167
0.0219916
0.0543259
0.0588602
0.0401181
0.036135
0.0039725
0.0586936
0.0488522
0.0323118
0.030511
0.0310302
0.0375727
0.0220524
0.00599706
0.0533087
0.0485465
0.0110578
0.0394763
0.00710866
0.00743039
0.000405596
0.000266384
0.000542819
0.000486796
0.000439682
0.000411312
0.000420615
0.000488347
0.000443154
0.000456975
0.000304602
0.000414013
0.000417309
0.000456145
0.000413577
0.000349963
0.000440796
0.000438125
0.00042726
0.000419985
0.00115689
0.00354816
0.00865175
0.000959675
0.000336349
0.000692382
0.0082248
0.000367015
0.0010142
0.00091013
0.000722472
0.00387401
0.000839502
0.00063362
0.00395255
0.0238059
0.0621418
0.0413281
0.0689014
0.0695203
0.0665765
0.0636726
0.0574128
0.000701514
0.00074707
0.00144616
0.00130927
0.00120928
0.00123585
0.00123269
0.00080894
0.00116564
0.00132683
0.000849844
0.001079
0.0136236
0.0175763
0.0768606
0.049125
0.0109717
0.0220551
0.0776277
0.069399
0.0732283
0.074276
0.0112632
0.0639476
0.0772788
0.0144158
0.0515318
0.025895
0.0337125
0.0302988
0.000243149
0.000468151
0.000584073
0.000541823
0.000531645
0.000224322
0.000277351
0.000309552
0.000362413
0.000730435
0.00093556
0.000251698
0.000293742
3.71852e-05
0.000228625
0.000709545
0.000670425
0.000469083
0.000330069
0.000376656
0.000837115
0.00107534
0.000488888
0.000925938
0.0003221
0.000370313
0.000464626
0.00165659
0.000545656
0.000370792
0.00324231
0.000421817
0.000344595
0.000581676
0.00091356