/*--------------------------------*- C++ -*----------------------------------*\
  =========                 |
  \\      /  F ield         | OpenFOAM: The Open Source CFD Toolbox
   \\    /   O peration     | Website:  https://openfoam.org
    \\  /    A nd           | Version:  10
     \\/     M anipulation  |
\*---------------------------------------------------------------------------*/
FoamFile
{
    format      ascii;
    class       volScalarField;
    location    "3";
    object      omega;
}
// * * * * * * * * * * * * * * * * * * * * * * * * * * * * * * * * * * * * * //

dimensions      [0 0 -1 0 0 0 0];

internalField   nonuniform List<scalar> 
75457
(
27.2576
26.8529
22.7114
20.8636
25.2901
28.9391
19.493
28.9391
16.7286
16.43
15.4356
21.055
20.6466
17.4696
2.92017
2.92024
2.91285
2.93027
2.91329
2.89971
2.91612
2.90226
2.92205
2.9215
2.91586
2.94025
2.92902
2.97062
2.99973
2.97132
2.95372
3.02142
3.03171
2.94172
2.93708
2.94833
2.93701
3.07281
3.03686
2.93166
2.93279
2.93162
2.93837
3.0412
3.11644
2.93456
2.91484
2.9926
4.71947
3.14591
3.98498
4.73051
11.099
3.93913
3.21302
3.33548
6.23622
7.13941
6.13067
12.5645
9.80098
5.2585
8.73282
7.1795
7.07059
7.99217
6.66549
8.28425
8.5004
13.9513
8.19868
14.5625
7.7758
7.74546
8.05981
7.15796
7.59471
15.4658
13.7086
12.9712
19.733
14.9811
12.7635
11.7064
11.1227
11.6839
12.6238
13.624
16.2363
17.9535
12.3074
12.3685
15.3516
11.162
3.99451
3.02103
3.34238
3.41612
20.1667
5.65021
6.29051
9.21185
22.1304
20.0085
39.5998
41.1199
20.8322
18.6946
20.4575
7.25798
5.61977
15.693
15.6783
13.4192
5.31372
9.87764
22.1444
9.22226
8.6125
24.2486
6.02784
6.75063
6.69211
6.4186
7.62181
7.58305
15.3634
6.44282
11.4625
7.19155
6.84871
6.94998
6.57553
6.10917
3.33874
15.3304
7.05196
5.45699
5.73508
24.678
4.12545
5.09068
6.29297
3.92353
4.21678
5.62196
6.44061
7.53561
17.7274
4.28068
32.242
8.41811
4.491
3.5901
8.02566
12.8208
3.3025
26.4749
4.67741
6.1876
22.5306
4.76831
7.37363
6.04528
6.26357
6.53195
6.21634
6.39781
5.79039
5.79003
6.07536
6.29668
6.02332
6.14059
5.95976
5.81799
7.9468
7.18539
6.91
9.77991
3.79299
22.3351
3.29185
11.2022
26.1852
4.57819
3.02757
8.68658
15.8185
35.8045
6.45739
6.95723
7.58742
12.4258
5.74264
25.1243
3.62418
4.29623
3.69814
4.03825
3.52591
7.01519
8.44999
12.4326
6.03129
6.77346
12.4819
10.7485
11.2533
11.496
9.9429
10.0345
21.814
24.4978
7.89885
9.73544
23.3025
9.48579
25.985
23.961
24.8503
7.70852
11.0225
21.1029
9.3638
10.0869
26.4085
11.8457
6.70429
20.2881
4.22308
4.03494
18.9584
7.24929
8.45496
5.49635
7.65757
3.45461
3.74811
3.99969
4.2314
6.82834
18.6756
5.48833
14.4199
8.94533
4.86024
5.42137
9.336
22.1474
7.8904
18.7923
3.84897
14.0825
0.547605
14.0825
4.96613
4.61701
4.95747
3.99912
3.909
4.14948
1.16871
5.16568
8.48023
16.222
12.3626
28.2783
15.5
17.9604
24.4226
15.1197
5.13053
6.10342
8.83493
5.34708
9.26095
10.3372
15.0973
8.77969
8.11176
12.6461
8.98644
13.056
6.32583
10.3594
6.01406
3.58727
3.2522
4.38758
4.09241
4.39901
4.66128
17.4917
15.0615
23.6039
16.4907
8.1332
7.92514
21.5867
7.68503
10.6514
26.1556
5.11329
4.95814
3.16059
21.7116
3.76778
4.46774
21.7116
3.18999
4.28142
6.22898
3.72826
14.0832
17.4561
16.5286
14.596
15.6262
26.5984
13.8581
18.7428
15.644
15.8016
22.387
3.74204
3.78123
4.27754
6.35804
10.7069
9.32453
7.93685
8.77626
24.7942
4.83863
4.84361
7.57209
7.10473
31.3385
8.34423
6.49532
25.8183
8.75241
11.7476
21.7379
6.36512
4.76549
11.5406
18.5105
6.44091
8.66573
8.30799
4.34965
3.83892
8.82433
7.10309
9.23808
27.7474
7.46778
4.41168
14.7639
21.0955
15.4406
20.3864
3.35613
3.26437
3.98329
3.94389
5.61464
4.77407
7.59683
4.26638
5.22075
6.31093
21.9458
10.6193
8.37942
5.69198
14.1229
7.22346
11.714
9.90553
22.2645
22.022
14.0486
3.36164
6.04121
5.74831
3.71981
3.33861
5.26917
4.3428
4.33007
4.32731
4.28647
4.36311
4.35725
4.35849
4.32702
4.34744
4.34874
4.39476
4.233
4.31875
4.24868
4.31864
4.368
4.22774
4.26117
4.27481
4.26379
4.37633
4.27854
4.414
4.28545
4.45536
4.42253
4.2509
4.31797
4.33699
4.43652
4.38534
3.96907
4.09255
4.20275
4.24477
4.13674
4.20003
4.2715
4.35087
3.98884
4.05784
4.0302
4.04041
4.09401
4.18851
4.15449
4.31097
4.17877
4.17832
4.19315
4.2513
4.15385
4.23262
3.06971
2.94219
2.95069
2.9411
2.94474
3.07836
2.91653
2.85744
2.91811
3.12876
2.90201
2.90475
2.88569
2.901
2.87625
3.11934
27.1871
16.9399
18.2049
16.9399
11.4616
11.7236
11.6555
14.903
11.0204
11.5043
32.6232
31.0286
25.9809
17.2948
11.9643
8.90595
3.08884
3.00729
3.2077
3.32449
3.19776
3.11035
3.02994
2.98284
3.05491
3.1454
3.22834
3.32595
3.35371
3.10283
3.92494
3.0728
3.07268
3.07913
4.51381
4.56352
4.50182
4.41855
4.39856
4.39595
4.39786
4.5195
4.50996
4.38251
4.43735
4.46677
4.40053
4.53785
4.58751
4.62507
5.83611
5.59415
5.92019
5.58772
5.36053
6.01369
6.36455
6.02543
5.85671
6.03573
5.87302
5.75936
6.02155
5.74025
5.81057
6.24462
6.33674
4.63837
4.82756
4.64645
4.68737
4.593
4.55942
4.62218
4.75885
4.56646
4.42617
4.68647
4.51119
4.44792
4.44886
4.50454
4.37369
4.55387
4.99091
4.0229
4.73481
5.70531
3.50999
5.31746
3.80765
5.15042
3.65726
3.80586
4.43289
5.8613
5.38228
4.65987
5.53024
3.49884
6.02115
6.26132
2.96087
2.91015
2.928
2.93987
2.97806
2.94367
2.95929
2.92925
2.9296
2.93684
2.95817
2.92067
2.92439
2.96768
3.03882
3.03469
3.0919
3.03369
3.15176
3.10059
3.0699
3.0616
3.0396
3.06178
3.08186
3.09828
3.04426
2.99629
2.99327
3.07657
2.99914
3.00539
3.93688
3.95027
4.00525
4.26975
4.26422
3.98
4.00199
4.24471
4.10849
4.23979
4.066
4.22808
3.36835
3.1676
3.49928
3.13276
3.46255
3.2884
3.43253
3.42107
3.39896
3.04482
2.99934
3.02515
3.05246
3.02739
3.02459
3.03544
2.96235
3.33077
2.9434
3.20562
3.99719
3.86865
4.19592
3.70455
3.62456
3.25681
3.11637
3.03175
4.05023
3.06673
3.12564
3.26491
3.17448
3.15102
3.11135
3.20489
3.35383
3.16716
3.14424
3.09308
3.11871
3.21091
3.248
3.19775
3.22515
3.32161
3.27781
3.13059
3.092
3.18797
3.10055
2.9248
2.92296
2.90407
2.95359
2.92514
2.92685
2.95092
2.9192
2.91463
2.91248
2.94504
2.93936
2.91998
2.92607
2.99885
2.96298
2.95434
2.99627
2.95428
2.96899
2.92878
2.90964
2.92455
2.9064
2.91384
2.95952
2.91289
2.90328
2.90916
2.89766
2.90438
2.90598
4.60728
5.85241
6.14763
3.49881
3.49012
5.07638
4.30115
2.86528
3.23199
6.84717
5.41631
6.0027
6.28192
6.23294
5.9046
6.92019
8.7907
7.33527
11.2418
5.82363
5.92877
6.64119
10.2016
10.2573
7.85961
9.96644
10.3876
10.4475
6.16344
7.48248
6.78699
7.70045
2.90992
2.94828
2.93975
2.90309
2.88296
2.87499
2.92621
2.75153
2.61073
3.22168
3.46532
3.78979
2.68081
3.39815
4.21941
3.18816
3.77452
2.89996
3.75442
5.41358
7.53363
4.06896
4.47022
9.3685
7.31125
4.74472
7.47924
6.32027
4.49452
3.9201
4.18967
5.83417
6.31974
7.3541
8.32054
8.28062
8.33429
6.29278
8.53944
7.54525
8.43658
2.89177
2.89628
2.86149
2.85757
2.90262
2.88867
2.89808
2.89573
2.97045
2.86736
2.88593
2.89208
2.83389
2.88941
2.96024
2.88972
2.8924
2.90113
2.89153
2.9185
2.94901
2.8911
2.99956
2.96532
3.02083
2.96301
2.94902
3.03471
3.02185
2.94581
2.97542
2.9959
2.96389
2.96929
3.03988
2.95143
2.96321
3.06096
2.98325
2.94931
2.92539
2.93071
2.8093
3.22682
2.86542
2.90736
2.85287
3.09674
2.88913
2.87252
2.92792
2.91161
2.9133
2.85586
2.85759
3.08398
2.9103
2.90372
2.88307
3.04782
2.87987
2.89249
2.92164
2.87976
4.60774
5.64932
2.97249
3.07904
3.31152
3.69399
3.14872
3.26548
3.49134
4.04356
4.58247
4.26181
3.28398
3.03993
3.00578
3.31103
3.12638
3.05305
3.04455
2.95896
2.98336
2.97151
2.96132
2.9359
2.97603
2.97058
2.98787
2.96663
2.94466
3.02526
3.06984
4.42841
4.72032
4.82312
4.51698
4.68907
4.74595
4.85808
4.60192
4.70144
4.82834
3.04078
2.9249
2.89513
3.12623
2.91497
2.91772
3.10952
3.38033
2.91738
3.04641
3.1106
3.16913
3.13955
2.95777
3.15845
3.18138
2.925
5.6693
5.90823
5.88085
6.23208
5.85673
5.52842
5.79892
5.5706
5.52963
5.79506
5.81109
5.67766
5.66492
5.65626
5.86993
5.6024
5.88785
5.52237
5.60072
5.55073
4.74522
4.79432
4.73804
4.75821
5.00896
5.11544
5.61283
4.90223
4.89788
4.77091
5.47937
5.53815
4.71081
4.81913
5.07541
5.81629
12.1329
11.0563
10.874
12.1662
11.7056
10.7241
10.3773
12.3549
12.3121
11.8906
9.66636
10.1572
11.8801
3.09
3.16302
3.08433
2.9926
2.98955
3.01865
3.14416
3.08603
3.03646
3.01737
2.9567
3.04538
3.51578
3.94547
3.53414
3.53649
3.81211
3.69877
3.30426
3.25541
3.26088
3.37064
3.38738
3.34236
3.47538
3.43382
3.59419
3.46841
3.55925
3.4872
3.4187
3.48565
3.50133
3.75296
3.81181
3.90146
3.03372
3.13821
3.64275
3.46857
3.00655
3.00346
3.34997
2.98528
3.23037
3.03665
2.98794
2.99696
3.19718
3.02907
9.90494
11.552
9.04306
9.41488
8.68696
8.87214
7.69145
6.4364
7.08874
6.89308
6.45217
6.03372
7.95517
6.43359
7.40533
7.4749
4.46698
4.95614
4.59203
4.36162
4.34336
4.43661
4.37486
4.35354
4.35741
4.48649
4.58411
4.4271
4.56432
4.53565
4.80003
4.61012
12.9792
10.375
10.9194
10.6647
12.0902
8.69164
5.36595
5.4145
5.89922
5.97161
5.71218
5.53268
6.44775
8.79068
9.85669
7.93434
9.64871
9.85058
5.69112
7.17988
6.6838
7.63425
7.33828
7.07458
6.84306
7.16118
7.72274
7.38391
6.94119
7.31342
7.3858
7.05092
7.48812
6.97188
7.13702
4.70202
5.04586
4.76528
4.71509
5.3424
5.55183
6.23401
5.194
6.31646
6.541
6.2897
5.82862
7.25603
7.50223
3.49661
3.82974
3.35768
3.47909
3.39499
3.58552
3.21333
3.0515
3.66359
3.19677
3.34418
3.01265
3.1768
3.03197
3.02227
3.02508
2.89357
2.907
2.89964
2.90842
3.24778
3.30862
2.80923
3.00345
2.94472
2.86321
3.1248
3.24626
3.6348
3.10509
3.14524
3.36755
3.15418
3.70214
3.73749
3.08345
3.66638
3.58464
3.22465
3.13352
4.03035
3.55519
3.86592
3.83021
3.78187
3.03053
3.03904
3.22467
3.04308
3.89792
3.88124
2.9243
3.04141
2.95021
2.98924
2.80262
2.85049
3.02841
2.90287
2.84641
8.26064
7.19188
7.20544
8.1298
8.51675
7.54353
7.38422
7.57869
7.54574
7.47226
7.61464
7.45116
8.22153
7.98917
8.07555
8.33111
8.04287
7.83919
7.40377
7.86068
2.90071
2.88115
2.86821
2.88524
2.8965
3.06556
2.42292
2.89413
2.90258
2.7665
2.77432
2.76243
3.8737
5.5336
20.5933
4.04071
15.8941
4.85068
8.38977
16.8639
18.6136
3.88123
8.64506
11.349
19.5338
5.34325
8.81839
3.46996
6.71078
4.10651
3.87835
6.87683
8.30386
6.33972
3.80356
3.28747
3.23912
10.2832
11.787
11.584
12.7921
3.22235
3.3159
3.23976
3.1604
3.20049
3.93119
4.45071
3.62995
2.91317
2.93177
2.90582
2.90338
2.88748
2.90565
2.91663
2.90087
2.9098
2.91109
2.97009
2.93898
2.93633
2.93263
2.90707
2.92662
5.03331
3.71902
5.72195
4.90815
11.8472
9.91462
3.38877
7.76284
9.91096
6.58061
7.21042
6.63782
3.55428
9.76045
11.8037
8.50226
10.8418
4.20084
2.82646
8.2042
2.87177
6.64455
13.0804
3.60226
5.62403
3.24473
7.61857
14.8882
7.06268
2.81608
3.59101
3.88571
15.7695
3.53633
4.30429
5.88068
9.69456
4.16038
8.06384
3.72406
21.2607
5.86134
7.13897
25.4722
5.38944
8.52872
7.79194
7.03082
14.2254
4.70545
5.63078
9.86245
13.0098
3.88807
3.43819
7.62149
3.29777
7.71699
13.9694
7.62646
3.11984
3.34964
12.9778
8.16251
3.28782
3.17054
3.52596
3.17371
2.82372
2.91829
2.91746
3.07466
3.19867
2.82436
2.84854
2.84161
3.0507
3.15504
2.89251
2.89852
2.76523
2.9925
2.92624
4.07834
3.3451
3.72831
3.83765
3.57342
3.6057
4.47152
2.42599
3.21421
3.97649
3.76113
5.62841
8.68856
4.68163
11.8943
11.5776
10.9867
10.7647
12.2771
10.6201
10.1895
10.778
11.1112
11.0542
12.3963
12.9173
10.2066
10.4352
10.8147
11.2214
10.911
12.3873
11.6171
10.8031
7.47609
9.61699
6.08458
6.07381
10.3094
11.7307
16.98
13.0636
6.11545
6.27138
7.11477
9.63139
10.9841
13.0636
7.47168
9.46434
6.26137
6.20231
7.12705
4.69304
4.05159
4.16145
3.63118
9.50743
13.7645
9.04724
11.0689
4.12775
3.98726
10.721
7.07625
4.3221
5.22077
10.6293
7.16237
5.13172
10.0959
5.20637
9.4351
2.8896
2.88101
2.85457
2.83181
2.88506
7.46509
9.45817
4.15333
4.35426
2.43987
3.39015
2.63819
3.15738
3.06065
5.21422
2.71688
2.71242
2.68369
3.00638
5.02275
4.74784
4.37704
4.96898
4.22446
4.63209
3.66897
3.88163
3.7063
3.83713
4.6922
9.50972
7.86149
4.11413
5.22461
6.96481
24.4812
22.8339
24.0494
26.0464
30.4422
27.4801
30.3365
43.4266
40.9915
36.5475
32.3052
31.6976
44.7035
33.7513
32.5198
31.2399
38.9018
38.757
39.4784
29.3598
8.99135
9.71698
7.22911
9.86517
5.71076
6.24566
3.24528
4.46097
11.2811
7.49502
16.1778
8.74716
3.94641
3.6612
13.3729
10.3528
16.0853
8.1169
18.1727
5.93199
30.6409
37.5225
41.4729
55.8863
42.0923
29.8292
24.6174
39.5077
47.11
41.9992
45.333
35.6067
62.5751
41.0425
79.0082
80.9912
55.2755
2.20409
10.7315
6.18022
29.1634
4.91304
4.60504
7.40948
6.4696
37.4975
6.46244
1.31149
19.9839
12.1233
11.5936
15.2052
14.5448
13.1312
11.6019
10.9358
10.6826
14.0162
15.1358
12.5943
12.9301
12.8409
14.1874
11.5749
12.8945
12.8159
12.0092
15.4357
11.2159
11.3264
5.79506
5.69253
5.48063
5.62895
6.31245
5.86374
6.29814
5.734
5.5124
5.63274
5.58276
5.46663
5.4083
5.36189
5.82756
5.67762
5.59528
5.49886
4.8062
5.26018
4.81137
4.96784
5.07966
6.30552
4.7727
4.95119
6.04451
6.94407
5.13194
4.85672
5.06493
5.87419
5.14994
5.99168
6.43209
6.43717
6.07542
5.70185
6.55226
5.56971
6.34231
6.23292
6.35553
5.61764
6.24014
6.22116
6.25922
2.9282
2.94825
2.96058
3.01233
2.9241
2.93006
2.93527
2.93145
3.08589
3.18008
2.94463
2.93431
2.93107
2.93503
3.11435
3.10125
7.12416
7.17683
7.3134
7.1124
7.08085
8.11336
6.97111
7.06752
8.47461
7.27634
6.59542
6.42233
7.12293
7.85682
7.6905
7.22212
7.26048
21.8389
21.996
16.7863
18.1161
19.6364
21.9366
25.1964
25.507
18.6395
19.7749
25.5627
30.1082
24.8692
26.635
23.7596
25.1506
24.129
6.52238
5.1461
4.75107
6.45895
4.5187
11.4334
18.5061
4.59429
9.35456
10.191
6.48027
8.69668
10.0828
4.76479
3.27981
10.5867
22.5995
6.09282
8.18118
6.74564
5.63214
4.63518
4.44354
6.82235
6.50044
5.25971
5.14696
4.89342
4.78108
4.74666
5.00115
4.6081
4.40511
4.82817
4.5205
4.60415
4.7689
5.20816
4.63665
4.61854
3.58975
3.2786
3.31209
3.68477
3.46018
3.17577
3.11819
3.14727
3.67273
3.35872
3.58353
3.35854
3.73497
3.51864
3.23535
3.23769
4.39821
3.62687
3.9737
4.6182
3.75835
3.60487
6.80832
4.15176
5.17365
4.71404
11.2825
7.07059
4.11185
7.94428
3.49637
5.34396
7.78692
12.344
14.3443
8.75884
12.8921
15.0518
8.77309
12.6194
9.33457
6.49366
4.43094
3.66241
11.8748
7.99833
8.87522
2.675
3.47819
8.6435
3.15601
7.49437
6.9002
3.28686
3.09801
2.94591
6.15973
5.02551
4.95958
4.98638
5.74968
5.21292
5.3241
5.63082
4.88026
5.13283
5.64321
5.36115
6.56694
6.95248
6.2073
7.33621
5.47113
5.47703
7.06853
6.68227
7.10629
7.24583
6.77382
4.67135
3.79321
3.72839
3.90857
7.59863
6.34793
6.90847
6.222
5.85587
3.5013
5.45125
6.44515
7.05764
17.4223
16.6625
5.65435
5.71654
6.11114
19.508
7.44399
9.94285
6.14835
2.93464
7.16356
12.3516
4.61078
4.02706
3.44139
7.69389
6.6912
12.0747
13.9588
5.37559
7.09727
8.16079
3.46285
5.13402
4.89901
3.85008
3.80055
8.71654
7.777
8.83046
13.7289
5.98533
9.08707
3.8818
3.49064
6.63793
3.71106
3.24816
3.20391
3.09616
3.2869
2.88288
2.68345
2.99111
3.68785
2.95879
2.91767
2.9541
3.0171
2.89512
2.90619
2.87077
2.89665
2.89099
2.90119
2.89498
2.87722
2.86903
2.8613
2.86079
2.89661
2.88466
2.89999
2.90441
2.89097
2.81624
2.89967
2.87988
2.85943
2.83034
2.89066
2.83561
2.89879
2.95955
2.95055
2.84176
3.02076
2.97599
2.97003
2.96194
2.9397
2.90847
2.90132
2.94211
2.95724
2.89802
2.89229
2.91939
2.93637
2.89416
2.90085
2.90916
2.90974
2.90582
8.11868
6.16393
7.13969
6.93765
7.08649
6.49604
9.02329
5.8288
6.20504
9.48875
7.0921
6.18582
5.83685
5.88991
13.2455
8.35267
10.6162
3.30143
2.95107
3.1978
6.69684
5.37017
2.93984
3.11383
3.12262
2.64903
3.79929
4.35639
5.98231
3.01388
2.99136
4.39368
5.42674
2.91434
2.97049
2.96775
2.9943
3.08105
3.53999
2.88884
7.88637
6.10859
3.30047
3.11362
4.14836
4.76343
6.91949
5.07398
5.09191
6.04161
6.58598
13.7335
19.1556
9.132
18.1189
3.79337
6.31681
3.6914
2.89647
2.89787
2.88691
2.89873
2.9063
2.88505
2.87184
2.88528
2.93757
2.96084
2.90943
2.89251
2.88767
2.89332
3.07289
3.01179
3.00336
2.97115
3.32595
2.92897
2.98335
3.45045
3.76695
3.41583
3.79827
3.31052
3.14183
3.31446
2.87197
4.58898
3.06121
19.3013
19.3013
8.33914
19.3013
10.2864
8.68184
11.2053
6.65152
10.5326
9.57049
8.51225
7.63506
13.5186
8.14029
8.17589
10.4684
20.3898
24.2406
25.616
20.3896
21.2796
21.4973
23.7104
19.6301
23.4745
19.5386
9.28166
9.65382
6.94788
10.6598
4.10889
3.73275
3.40464
4.54372
6.44844
7.82857
9.53733
8.92125
7.84828
3.56364
3.6912
2.6981
7.22542
8.3126
3.53055
3.6138
3.41643
3.72884
4.06553
5.98089
4.2766
5.03093
7.18004
14.4252
7.13712
3.91959
4.09017
12.2309
11.8332
14.7454
6.71951
3.71388
3.75
5.54881
6.56787
5.30118
7.99305
7.87062
7.45704
8.00011
7.59105
7.28432
7.66445
7.53479
7.08932
7.44889
7.15815
7.49415
7.77561
7.52687
7.15534
6.78075
7.01854
6.73931
7.22385
6.20228
6.17044
5.67537
5.80773
6.46936
6.34683
6.49669
6.48458
5.97283
6.26211
6.4403
6.22874
6.52002
6.15172
6.2733
6.17034
6.25881
6.52646
29.2617
29.9931
24.9813
23.6188
38.8024
31.9784
36.7123
30.9428
29.0106
45.8794
35.6818
37.5577
37.1949
44.0147
58.174
55.909
4.64765
4.88077
4.88215
4.65732
4.59687
4.66986
4.65417
4.56642
4.81106
4.8058
4.51426
4.69993
4.51476
5.46609
5.20194
5.493
5.47096
5.39304
5.12087
5.77179
5.53936
5.73231
5.50658
5.63895
5.7532
5.38088
5.50759
5.39325
4.85247
4.92076
4.71383
4.79046
5.14025
5.03807
4.69136
4.71203
5.09995
4.89596
4.98965
5.02046
4.92165
4.93578
5.08228
5.26235
9.95721
9.91211
9.72677
9.10155
9.25495
9.60996
8.94923
8.78621
9.22174
9.3747
11.2132
11.0187
9.5059
9.17973
9.33045
9.39904
10.852
9.7442
9.90337
9.73694
8.03238
7.78094
7.44722
7.1978
7.68935
7.56019
8.31045
7.72073
8.54712
6.45878
6.84487
8.48309
7.39869
7.89323
8.37248
9.51433
8.51048
8.39475
9.61658
9.79207
10.2629
8.95201
9.38934
10.604
9.25876
11.2433
12.2378
11.3282
9.47503
8.76262
10.0439
12.486
10.8807
12.8441
11.9813
12.1918
10.1449
13.5975
12.1897
11.1615
10.7166
11.5578
12.4226
9.96928
9.72877
9.5618
10.3481
11.1181
3.24574
3.25014
3.25355
3.23501
3.41685
3.36682
3.3564
3.38753
3.49803
9.1741
9.57091
8.48296
8.51761
9.14949
8.35356
8.26831
8.69722
7.9504
7.79342
7.86268
7.82496
8.108
8.8813
8.35571
7.89476
8.18037
8.37359
8.71
9.23759
7.87883
8.60335
3.31092
3.39168
3.31835
3.2994
3.32549
3.45672
3.35828
3.18247
3.35677
3.22163
3.33161
3.20484
3.30639
3.16397
3.14098
3.21129
3.26168
3.18378
3.23843
3.15505
4.96655
4.73121
4.89527
4.63106
5.00635
4.73064
4.81064
4.92531
4.86253
4.74865
4.81891
4.60748
4.68585
4.71819
4.68968
4.9237
4.81341
4.93067
4.57784
4.78223
4.64646
4.88584
4.63978
4.46284
4.53346
4.59846
3.029
3.07588
3.0771
3.04007
2.96139
2.98498
2.92567
2.94142
3.09682
2.91372
3.13374
3.02742
3.02003
2.90753
2.91687
3.03313
2.95302
2.95555
2.91315
2.90551
2.91033
2.92137
2.95149
3.03888
2.90571
2.97025
3.08273
3.12104
3.14985
3.18074
3.01051
3.04188
3.01533
3.53735
3.71662
3.40891
3.29477
3.11153
3.21184
3.13692
3.14749
3.1238
3.22642
3.12247
4.0018
4.09564
4.22056
4.04925
3.88715
4.04261
4.16698
3.86436
3.92094
3.98959
4.01374
3.86123
3.8245
6.4599
6.9814
6.52727
6.22181
6.53702
6.93006
7.44337
6.79686
6.75679
6.42635
6.58922
6.99565
6.63834
3.22767
3.11633
3.28006
3.22347
3.12361
3.18983
3.35233
3.3363
3.26271
3.33072
3.32173
3.26288
3.31552
2.97745
2.9137
2.91412
2.93477
2.94173
2.98668
2.96938
3.0061
2.92087
2.91856
2.95196
2.9399
2.92201
2.93434
2.93934
2.89854
2.88861
2.87926
2.91007
2.90796
2.89026
2.88994
2.90871
2.90859
2.94744
2.89305
2.89523
2.92547
2.90402
2.90149
2.90636
2.97621
2.95269
2.977
2.96759
2.96537
2.9676
2.99325
2.96898
2.96794
2.96131
2.98937
2.9558
2.98413
3.01043
5.55474
5.71821
5.71969
5.26213
4.99684
5.38053
5.34893
5.06532
5.15021
5.22097
5.17601
4.71508
4.63089
4.92259
5.12798
5.30293
4.85923
5.11225
4.92228
5.16547
5.17666
4.88835
4.87309
5.021
5.06914
5.29158
5.17925
7.72837
5.20932
4.94099
5.05586
4.97181
5.11262
5.32502
4.2982
4.64308
4.8594
4.59901
5.53374
4.24791
4.56253
4.63215
5.08519
4.55722
4.74373
4.5441
4.87226
4.932
4.67295
4.61154
4.67543
4.85418
5.11552
5.03985
5.20982
4.80437
5.06534
4.45711
4.58212
4.22508
4.27368
4.45476
4.64871
4.6222
4.65783
4.96049
4.97874
4.63997
4.55026
4.73319
4.84483
4.75959
4.64194
4.82579
4.82279
4.74917
17.1172
15.7996
19.7465
14.2158
14.5051
18.3711
19.8399
16.3807
18.5627
17.31
14.4873
18.6677
15.6247
3.69639
3.77249
3.50433
3.58046
3.63903
3.40849
3.36737
3.56483
3.55504
3.47512
3.41118
3.76411
3.64646
3.36864
3.61972
3.58791
4.05398
3.65132
4.20451
4.06921
3.58386
2.91268
2.90936
2.91692
2.91306
2.92042
2.91485
2.92669
2.91348
2.85282
2.83405
2.90669
2.94366
2.87337
2.90164
2.84201
2.86329
2.91924
2.89442
3.86965
4.27109
3.84975
3.94476
4.00303
4.10965
3.41936
3.3926
4.03343
3.42988
3.49688
4.30576
3.5418
3.41394
3.40002
3.34763
3.39185
3.75098
3.78534
3.33892
3.79697
3.39596
3.34377
3.33795
3.69972
3.7656
3.81312
2.88473
2.90161
2.89311
2.87422
2.9098
5.8609
4.80229
5.71407
5.66324
5.9585
5.02592
5.8599
8.80063
10.4726
7.79179
12.7433
9.61508
7.05349
9.76595
5.32228
5.92151
5.67968
5.33843
5.36968
4.77288
3.84388
4.36325
5.49767
4.90388
3.73169
3.60901
5.05671
5.20602
3.61911
3.61637
4.021
4.07981
3.96285
4.59044
5.962
6.88225
6.16347
9.34736
12.4548
1.38057
6.13013
2.75826
3.90072
18.4273
31.2774
21.1057
21.0009
9.32019
4.25226
7.57057
19.5885
18.0698
6.38197
3.91647
4.10584
3.51478
3.3832
3.4942
3.30067
3.31464
3.67261
4.47414
4.33939
3.25567
3.50565
3.84078
3.59128
4.33301
3.54653
4.23476
4.05555
3.23846
3.26272
4.03625
3.04922
4.01813
4.41508
4.73955
4.11352
3.12835
3.0648
3.14069
3.1791
3.55586
3.49238
6.04903
8.2329
7.74574
8.11125
9.3026
7.00753
11.03
5.94475
9.88855
9.01129
5.68077
5.80375
5.7473
6.46145
7.83474
5.53312
8.90514
8.42458
5.48572
6.51516
4.40739
5.39726
3.20214
3.19051
3.18872
3.15406
3.16004
3.11688
3.12484
3.15948
3.16922
3.16738
3.13486
3.05491
3.05009
3.12535
3.09955
3.12039
3.08888
3.08141
3.02806
3.05059
5.65353
5.81013
6.95438
4.58712
5.36973
4.61676
7.07182
4.91529
5.34637
4.3275
4.39763
5.36615
4.58211
4.4236
4.78169
6.4124
8.49066
7.16869
9.3613
9.58102
9.01633
8.4622
7.6248
2.9461
3.07336
2.95744
2.95968
2.95852
2.96552
2.96738
3.0973
2.95713
2.94255
3.08457
2.98619
3.07734
3.14325
8.02236
4.46925
2.87677
3.35203
7.58701
5.45116
7.9213
8.39613
13.2898
5.97861
9.73165
15.017
5.70968
3.54
3.75442
3.7018
2.92112
2.92263
2.94153
2.94314
2.92755
2.92563
2.93711
3.01867
2.9793
2.96301
2.97898
3.00627
2.92889
2.95789
2.97373
2.99036
3.01182
2.96631
2.88929
2.88988
2.88937
2.88249
2.89843
2.88385
2.88925
2.892
2.89158
2.88967
2.88599
2.88728
2.90498
2.89316
2.88948
2.88687
2.88745
2.8897
2.88892
2.88906
2.89214
2.88948
15.8239
14.4461
16.3229
18.9294
15.168
18.0696
15.9114
14.3595
17.0416
18.8492
18.4865
17.0441
16.7713
15.6468
17.0037
15.2564
6.53674
6.71687
6.81598
7.07675
7.29825
7.32465
6.48348
5.85196
5.59594
5.85754
5.97273
5.82762
7.01068
5.77015
6.41014
6.6475
6.90025
6.68745
2.93806
3.05351
3.05742
3.00172
3.01035
3.04453
3.05638
3.06086
2.92978
2.92027
3.00128
3.03704
2.98284
2.92993
2.93134
2.92893
3.54234
3.53692
3.64084
3.54823
3.40565
3.55671
3.51068
3.57704
3.58633
3.56442
3.50034
3.59126
3.53182
3.5243
3.429
3.43983
3.36509
3.36672
3.3189
3.28074
8.51097
8.29414
7.33389
6.22634
4.56701
6.8669
5.50269
5.94866
6.41993
7.64004
4.61914
4.39718
5.52506
5.74044
4.8944
5.25777
3.48019
3.54252
3.65371
3.5714
3.15624
3.37101
3.02169
3.29559
3.02742
2.94528
3.01219
2.93483
3.07124
2.94766
2.87394
3.03091
3.17501
2.8744
2.88562
3.1787
2.92162
2.73061
2.87332
2.89079
2.86095
3.04862
2.88148
2.86959
2.85369
2.96099
2.95883
2.96533
3.03023
3.04606
3.01535
3.04749
2.93769
2.96751
2.88884
2.92553
2.93612
2.93033
2.98171
2.98467
2.91484
2.96264
2.98032
3.51597
3.70845
3.25216
3.06333
4.08642
3.74932
3.33787
3.30866
3.70672
2.9762
3.01565
2.96209
3.00684
3.01555
3.07307
3.00271
3.04994
3.00272
3.33416
3.0509
2.91787
2.91896
2.93615
2.93077
2.92286
2.91852
2.94123
2.9439
2.92501
2.94812
2.9189
2.92215
5.92368
5.62099
5.6908
5.82549
5.55843
5.74456
5.84831
5.76542
5.68344
5.70132
5.67884
5.52139
5.5008
5.50761
13.3018
13.6469
17.8932
17.4826
18.3747
18.4898
13.2124
11.8365
15.4273
16.363
13.5937
16.5847
14.4304
15.0427
2.89964
2.89865
2.89604
2.89765
2.9236
2.93513
2.90165
2.87928
2.89674
2.88954
2.87982
2.87647
2.87753
2.88916
2.89196
4.05992
4.62228
3.34202
1.90021
3.50934
4.91732
5.18857
3.0813
3.45516
3.17346
3.09462
3.3797
3.16587
3.21078
3.07661
2.9694
3.16436
4.5844
4.38176
4.07335
4.21655
4.35411
4.16711
4.20353
4.47686
4.16239
4.10979
4.0972
4.17672
3.95303
4.16371
4.04778
3.87831
3.87763
4.20847
3.8953
3.80372
3.90395
3.73504
2.9448
2.93394
2.88506
2.88755
2.88237
2.91663
2.92302
2.94035
2.92927
2.93537
2.92369
2.86278
2.88141
2.87744
2.89302
2.84272
2.86101
2.87662
2.87618
2.92689
2.99901
2.91635
2.87267
3.0249
2.86577
2.88534
2.86167
2.8559
3.09154
2.83066
2.72685
3.21253
3.42707
3.15165
3.48205
3.19821
3.55305
3.39245
3.62636
3.61781
3.54817
3.08371
3.52577
3.05564
3.05473
3.40499
3.32013
3.25021
3.17968
3.73901
3.77437
3.77368
3.76961
3.58705
3.69363
3.66506
3.70843
3.61176
3.71502
3.5887
3.6068
3.57847
3.54702
3.71425
3.72574
3.59597
3.50211
3.55727
3.502
6.87779
6.59621
5.30518
5.69662
7.29777
6.23631
5.52907
6.53342
4.87667
5.01185
4.98983
6.65908
7.84092
7.42595
7.50047
7.55701
7.66547
7.45277
8.01644
7.87429
7.33277
7.36528
7.04871
7.10463
7.03642
7.95404
7.65347
2.9392
2.93824
2.93625
2.92532
3.02747
3.01849
3.0103
2.98282
2.98657
2.94335
2.96325
2.92523
2.92035
2.9565
2.95713
2.9391
3.02855
3.02989
3.15175
3.0816
3.05737
3.26912
3.25529
3.58743
3.44831
3.22423
3.34348
3.27579
3.40913
6.89906
6.15426
6.17665
5.97188
6.46396
7.64396
6.03212
6.12353
5.94565
6.02592
6.4703
7.68662
6.24695
12.3377
12.7885
13.0352
11.3928
11.9912
11.4413
10.5294
8.11264
8.5341
13.7962
12.852
13.8499
13.4162
8.45731
8.52461
11.6901
10.4201
8.73401
9.26529
11.7523
4.75446
4.69512
4.62555
4.71512
4.48428
4.45814
4.94793
4.59151
4.64875
4.53569
4.93499
4.59717
4.65784
4.90499
2.90274
2.81756
2.88054
2.8787
3.21681
3.75401
2.86547
2.85977
2.90849
3.25543
2.88215
2.87193
3.21595
2.97596
2.86553
2.97547
2.8635
2.8809
5.11319
5.04925
3.14506
3.15861
5.24783
5.08168
5.14573
3.51396
3.83632
3.86953
3.28069
3.47921
5.47058
5.44275
5.75188
5.58751
7.51622
5.75857
4.82364
4.69804
25.0579
4.25782
11.2407
4.20197
7.43751
3.00791
2.99227
3.1628
3.36005
2.98175
3.02626
2.98539
2.96815
3.17313
3.05594
3.02355
3.12648
2.9752
3.0367
10.7503
10.978
11.4118
16.463
14.1843
16.2474
5.39652
6.56184
10.403
13.8228
5.26182
4.76123
4.85504
4.93728
4.88005
4.60961
4.62253
4.75341
4.71992
4.86179
5.00757
4.86715
7.31489
7.28403
7.81494
7.1815
6.86252
6.55815
6.53005
7.09027
6.86633
6.11981
6.39506
5.80305
6.14286
6.46596
6.68188
5.59974
5.71578
5.48861
5.43763
5.62691
5.50082
5.16999
5.31419
5.26581
5.25877
5.53084
5.81048
5.37984
5.48983
5.42249
5.37734
5.70869
5.85265
5.40461
5.63141
5.5289
7.02591
6.6651
6.69837
6.30436
6.05162
5.77429
7.43306
7.84985
7.04444
6.28879
5.56634
6.63662
5.24103
6.99316
5.34766
6.772
6.0981
8.27026
8.21252
7.92973
7.80858
8.50885
8.90775
8.37313
9.43776
9.81558
8.79015
8.24164
9.13578
8.55615
7.49261
8.16399
9.089
7.98951
8.27897
7.7062
8.35108
5.82742
5.97159
5.77461
5.85385
5.58796
5.7893
5.95063
5.68534
5.73451
5.90574
5.87882
5.90923
6.12647
6.14213
2.85962
2.88989
2.88657
2.918
2.97559
2.88844
2.88905
2.9011
2.94622
2.70989
3.24845
3.01068
2.92268
3.29784
3.13068
3.48956
3.88192
2.87342
3.01623
3.30236
4.91211
3.47763
4.09579
3.21439
4.28098
2.88924
2.88979
2.89254
2.88789
2.89092
2.8891
2.88821
2.89404
2.89095
2.89231
2.88928
2.88871
2.8909
2.88597
2.89131
3.26104
3.36331
3.03947
2.9562
8.34602
9.27109
2.89639
8.65449
3.08936
3.25727
3.16482
4.57697
4.33235
7.989
8.9864
6.08492
7.28935
6.64648
5.58166
5.59055
5.67783
5.56452
5.694
5.92406
5.58172
5.51982
5.79416
5.5157
5.50569
6.25981
5.62166
5.83924
5.60567
5.83561
5.38195
5.42962
6.32612
5.78369
6.17708
4.57889
4.42847
4.42236
4.36641
4.4819
4.44298
4.56729
4.61669
4.44926
4.49826
4.59616
4.68234
4.81169
4.73296
4.67296
3.15903
3.19847
3.10827
3.14731
3.18925
3.21443
3.24009
3.09939
3.351
3.1832
6.73957
6.8919
7.15976
6.9623
6.54406
7.07234
7.52936
7.31913
7.31538
6.85271
6.74542
6.9948
6.14915
6.37281
6.84663
5.78232
5.0493
5.92469
5.97829
5.153
5.33218
6.61895
6.82625
7.0525
6.06509
6.67806
5.46915
5.48279
5.30078
5.61883
5.75093
6.46222
2.95638
2.91136
2.92421
2.93815
2.8964
2.95654
2.89667
2.89528
2.87797
3.05609
3.14805
3.03557
2.89921
2.9527
3.11221
44.3262
15.0135
20.9593
10.039
17.8895
35.7631
31.76
26.3128
12.9732
11.5624
11.7783
23.6686
15.8525
15.0574
27.3256
4.92897
4.79865
4.93785
4.86985
4.69286
4.82334
5.36688
4.94537
5.72201
5.09106
5.48142
5.01689
4.88304
5.12268
5.02488
4.81138
4.78986
4.87844
5.03667
4.67711
4.62705
4.97005
4.88243
4.97362
4.82768
4.80909
4.86694
4.6975
4.75303
17.0928
13.3877
21.0616
33.1291
24.0115
19.5592
16.8933
33.1291
20.2283
3.00258
2.97393
3.01407
3.03432
2.93982
2.95747
2.97629
3.47857
3.49472
3.96482
3.8324
3.21561
3.22561
3.56267
3.04482
3.4042
3.47848
3.06346
59.7762
66.9517
81.1556
38.2156
64.7933
75.0815
105.351
101.137
45.0832
89.1232
60.3071
61.1964
85.1141
88.1011
122.341
124.519
212.202
76.5923
92.2328
122.495
204.111
62.2225
65.92
62.029
81.1256
63.6791
121.402
46.9802
46.1193
82.0666
62.5246
5.97736
4.10464
4.48138
17.0876
5.69796
20.2803
3.51647
5.76981
10.4486
5.29756
9.504
9.27521
10.5337
9.53692
10.0879
8.89827
8.39596
9.70855
10.6076
9.74847
10.5889
10.4534
9.84945
10.2963
9.90971
14.9592
15.0195
15.2508
13.9384
16.9685
17.1587
14.4034
13.2115
17.1564
14.7818
15.3957
11.6017
12.6515
10.7834
13.7024
9.11115
14.963
13.0997
8.56226
24.9357
23.4725
32.87
28.7035
28.0429
26.8683
28.3107
34.7059
37.1005
35.9957
36.8181
41.8268
45.2196
8.36399
7.47409
12.8671
15.528
7.94524
8.39577
14.7357
11.455
7.47937
7.26962
11.9086
8.50492
8.06865
8.25755
9.6701
14.1149
16.1698
19.6233
15.4223
19.0706
16.3759
10.4472
22.8547
13.1767
22.5286
23.2163
22.4179
28.248
24.9035
9.44729
8.58849
20.6674
26.5373
28.2311
20.715
3.03937
2.97992
2.97948
2.96872
3.02191
2.9797
2.98344
2.97019
2.92145
2.9039
2.98976
2.99234
2.96759
2.98665
3.02442
3.15491
3.07403
3.09615
2.96525
3.00157
3.12041
2.96532
7.35013
6.87382
7.19142
6.74034
7.1288
7.33811
7.81371
7.68692
7.34127
7.03019
7.12174
7.67241
7.11054
7.8151
7.50252
7.4081
7.16992
3.14065
3.29743
3.61324
3.57517
3.48017
3.23837
3.15258
3.1972
3.64145
3.97665
4.47625
4.22601
4.79481
2.91853
3.40915
3.5748
3.48927
3.77099
3.42548
14.5257
12.4882
8.04757
8.30515
7.48575
7.18138
8.15063
9.97835
15.2055
15.4809
14.4531
15.157
17.0349
11.0744
8.23679