/*--------------------------------*- C++ -*----------------------------------*\
  =========                 |
  \\      /  F ield         | OpenFOAM: The Open Source CFD Toolbox
   \\    /   O peration     | Website:  https://openfoam.org
    \\  /    A nd           | Version:  10
     \\/     M anipulation  |
\*---------------------------------------------------------------------------*/
FoamFile
{
    format      ascii;
    class       volScalarField;
    location    "3";
    object      p;
}
// * * * * * * * * * * * * * * * * * * * * * * * * * * * * * * * * * * * * * //

dimensions      [0 2 -2 0 0 0 0];

internalField   nonuniform List<scalar> 
75457
(
-45.4046
-40.7416
-37.7976
-33.9904
-28.427
-31.0165
-40.538
-41.3177
-28.0872
-21.8845
-25.7828
-28.7991
-28.6652
-25.7459
-2.34138
-3.0544
-3.51205
-2.73231
-3.63277
-3.39457
-2.45755
-3.53116
-3.0133
-3.39404
-3.46926
-4.08066
-3.49188
-0.256958
-0.306673
0.187498
0.255893
0.15819
0.0853312
0.0351101
0.207297
-0.358314
-0.260857
-0.196267
-0.555534
-0.000275393
-0.284354
-0.0557067
-0.313502
-9.72444
-8.61338
-8.64065
-8.91881
-9.33227
-4.79167
-5.38282
-5.69128
-5.22406
-5.0745
-5.2157
-5.74684
-5.80429
-5.39417
-5.64083
-5.16739
-5.34478
-5.13885
-5.1382
26.356
26.6359
26.3775
26.7213
26.9795
26.9927
26.6365
26.676
26.9662
26.7467
26.4525
26.7399
26.7271
26.3897
26.6145
-7.2143
-7.98151
-7.73978
-8.2528
-11.824
-5.04473
-5.38316
-10.2811
-10.2878
-10.5901
-9.98675
-3.28443
-6.92257
-5.2113
-5.94092
-9.1677
-7.86698
-8.24726
-8.4208
-8.40982
-8.64726
-8.49979
-8.27198
-9.14322
-8.61718
27.3416
27.2314
27.4913
27.5077
27.3741
27.2257
27.1453
27.5959
27.5978
27.2121
27.2234
17.9192
18.5863
21.0357
20.6077
17.974
19.5666
19.5901
19.0517
19.4193
21.1118
20.903
21.4391
21.9721
20.7236
20.1583
18.9583
21.3856
20.3752
9.97062
9.93252
9.41118
10.2534
9.88267
11.3102
11.0175
10.9008
10.8997
4.75003
4.33928
4.84312
4.45823
3.95304
4.39487
4.42241
3.57044
-7.96889
-7.96004
-7.43033
-7.5627
-7.88465
-7.619
-7.44814
-7.01797
-5.59827
-5.71835
-6.88479
-6.65584
-6.36226
-6.84134
-5.89585
12.255
13.854
14.0945
13.4435
13.8626
10.1588
11.5612
13.1056
12.106
13.0804
10.43
9.1075
9.7114
-10.4681
-10.8819
-10.7161
-10.9076
-10.6669
-10.7986
-10.3262
-11.0745
-10.8743
-11.0712
-11.0347
-11.033
-10.9268
-10.9123
-10.5004
-8.90776
-10.9693
-9.39869
-9.20164
-10.9711
6.98844
7.70368
6.36906
7.24428
5.52759
6.26901
8.59465
8.30136
7.47961
4.91008
4.85328
-9.60996
-9.4347
-9.71582
-9.64241
-9.74001
-9.6846
-9.45033
-9.27663
-8.70534
-9.69199
-9.54169
-9.20785
-9.59338
-9.0102
2.65142
1.86068
2.19506
0.6997
1.19924
1.78311
1.58691
2.77032
2.3947
1.61083
1.02726
0.508752
2.47939
1.01084
-8.50961
-8.58593
-7.79607
-7.66567
-8.12069
-7.96164
-8.51336
-8.2547
-8.66784
-7.66754
-7.96014
-7.41808
-8.13792
-8.5069
-8.08953
-7.91658
-8.16678
-12.7476
-12.6575
-12.1647
-12.4671
-13.643
-12.2726
-12.6556
-11.8426
-12.0013
-12.8646
-11.3954
-12.9038
-6.66574
-6.81253
-6.79009
-6.73175
-6.52597
-5.77563
-6.11513
-6.04543
-5.83588
-5.9874
-6.41625
-6.22993
-6.05671
-5.61345
-5.52734
-5.67018
-5.46013
-5.4518
-5.29196
-5.1509
-5.18651
-5.16564
-5.41509
-5.65424
-5.51915
-5.09824
-5.35178
-5.34483
-0.125217
-0.0945748
-0.13314
-0.177188
-0.0951268
0.0703303
-0.273035
-0.149711
0.014699
0.0653713
0.823915
0.581544
0.763314
1.2775
1.91992
1.24912
1.03454
1.102
0.811114
0.900756
-0.0545485
0.526023
-5.4021
-7.3274
-0.919099
-2.32214
-2.97334
-5.73342
-6.8189
-4.34102
-7.32127
-6.90538
-5.56498
-6.91435
-6.96324
-7.02636
-6.92945
-6.90311
-6.88775
-6.87346
-6.92605
-7.20514
-7.15342
-7.227
-6.63461
-6.93242
-7.00372
-7.03386
-6.94909
-7.02535
-6.34499
-6.18812
-6.47749
-7.08819
-12.5245
-11.5579
-11.6339
-8.34195
-8.48343
-8.15044
-10.1165
-2.40129
-3.03019
-3.57079
-3.50593
-3.06667
-3.12607
-2.4827
-3.25614
-3.52473
-2.83522
-3.04754
-0.139784
-0.132884
-0.211305
-0.314019
-0.124406
-0.126299
-0.202194
-0.0858007
-0.282365
-0.31826
-0.351085
-0.151948
-0.226015
-0.506713
-0.496885
-6.43227
-3.36557
-7.24115
-5.79355
-5.90516
-7.63205
-8.11746
-7.76643
-8.15906
-8.18634
-7.7714
-8.55921
45.1734
49.968
38.5924
41.2397
44.0017
46.0087
45.7518
48.5868
41.0569
45.4825
43.8285
44.8036
40.7892
45.2545
39.6462
41.0446
42.966
38.0578
29.9383
29.4912
30.1986
30.8947
31.814
32.7431
30.1865
30.826
33.2265
36.6353
33.4159
33.6786
35.3972
21.0994
18.3683
15.9672
17.6139
22.0363
18.7487
17.3688
18.81
18.3281
16.4645
23.7033
23.6779
16.9934
18.5507
15.943
22.0753
24.1591
24.2458
20.2979
20.3096
20.88
22.2326
-11.2006
-11.7508
-11.9664
-11.8737
-11.9897
-11.4071
-11.6445
-11.6869
-11.5527
-11.3096
-11.8644
-11.5335
-11.7534
-11.4701
-11.8304
-11.4965
-37.1941
-42.0686
-24.2848
-29.9839
-22.8667
-30.9867
-28.5965
-26.3042
-22.461
-28.5925
-47.2764
-41.7151
-26.7333
-36.9953
-23.8747
-24.5786
-0.24344
-0.36242
-0.209124
0.511972
0.756581
1.34932
-0.572714
-0.829502
0.637851
0.629363
1.36945
1.03832
0.857702
0.783557
0.602223
-0.000414993
-0.617631
0.0427585
29.1222
33.2649
31.8428
28.358
29.6784
32.4525
35.9241
35.0093
30.017
35.9468
37.6652
35.8945
32.0397
28.8246
29.6192
30.5733
22.3631
21.7432
22.249
22.0063
21.1986
22.9425
23.5172
22.9118
22.2708
23.2499
22.6919
21.8706
22.7169
21.1568
21.8319
23.3482
23.8227
8.54251
8.37369
8.13942
8.48674
8.4983
8.5854
8.61586
8.63155
8.64453
8.49709
8.23222
8.36806
8.7441
8.41689
8.61386
7.86621
7.87707
-3.6381
-4.40657
-5.72455
-5.08024
-4.36307
-3.55257
-4.31531
-3.83517
-5.02563
-4.96804
-6.23518
-5.70476
-4.57005
-5.70797
-7.18409
-5.02156
-4.06534
-5.42814
-3.04393
-3.39294
-2.80803
-2.84399
-2.41684
-2.41433
-2.58503
-2.76979
-2.25154
-2.41553
-2.37991
-2.07491
-1.86317
-2.29916
-6.23623
-5.82344
-7.14483
-7.61379
-8.18291
-7.86589
-6.59227
-6.32904
-6.16868
-8.05997
-8.0425
-7.41978
-6.59621
-6.22286
-6.63825
-7.18061
-7.18144
-7.44828
16.448
12.2226
13.108
19.8923
16.1794
10.3076
13.2504
13.52
9.91344
18.3766
13.5023
10.5227
-9.21117
-8.70601
-8.36887
-7.97274
-8.19907
-9.18586
-6.4258
-7.06952
-9.17649
-8.44574
-8.56316
-7.52572
-7.46776
-8.7441
-8.39192
-8.46303
-4.15412
-4.67397
-3.59639
-3.96675
-5.05372
-5.24197
-4.28086
-3.03663
-3.3277
-3.59691
-3.36542
-4.92508
-5.00938
-3.63743
-3.2075
-4.43995
1.98708
1.31116
0.690505
3.53224
4.38934
2.1698
2.78407
-0.0637725
1.33908
1.9622
3.42923
2.4128
3.39662
4.10294
3.80492
1.0857
1.1785
2.31939
0.658175
-0.852735
-0.612502
-0.793904
-1.50559
-1.01552
-0.872013
-1.74174
-1.64348
-0.984822
-1.33673
-1.25661
-1.91533
-1.29357
-1.15006
0.430781
0.369333
-0.170529
-0.0718758
-0.112814
-0.0461555
-0.184467
0.016368
-0.0104699
-0.182917
-0.308981
0.0214112
-0.163262
-0.153462
0.0838299
-0.146754
-0.0710315
-0.200469
-5.07326
-5.80402
-4.9773
-3.82725
-4.51915
-7.72048
-5.3843
-4.96763
-5.19044
-5.95598
-7.35365
-8.82888
-8.97502
-9.3847
-9.7065
-10.2342
-10.2576
-10.1975
-12.3855
-8.19579
-7.77661
-9.70974
-10.9342
-10.5247
-9.76589
-10.6818
-10.7072
-10.7339
-8.55186
-9.24431
-9.80494
-9.07872
-11.3582
-11.5119
-11.155
-11.4316
-10.9923
-11.4005
-11.3164
-11.2653
-11.0489
-10.9716
-11.2924
-11.0072
-11.293
-10.9182
-11.14
-11.1903
-11.0021
-8.56365
-8.31147
-11.1189
-13.5979
-9.37555
-9.47478
-12.67
-13.4508
-10.2522
-12.8457
-11.1672
-1.39473
-1.2372
-0.633991
0.818347
0.0269029
1.08388
1.09058
1.89114
0.341837
0.2331
1.17461
0.363269
2.57796
-1.56126
-1.32687
-1.50936
-1.67004
-1.59372
-1.22534
-1.38894
-1.20417
-1.72483
-1.69575
-1.12153
-1.09424
-1.53663
-0.929799
-1.51667
-1.3431
-1.02768
-1.34474
-1.08629
-1.37722
-1.49045
-1.05717
-5.52132
-5.58076
-5.92543
-5.66431
-5.22739
-4.15126
-5.31194
-4.37595
-4.49503
-3.72343
-4.02968
-4.36127
-5.01063
-4.25747
-4.13756
-5.14018
-4.19215
-3.6656
-4.18373
-3.62111
-6.31778
-6.3232
-6.81113
-6.8831
-5.97076
-5.96251
-7.10028
-6.72736
-6.44585
-5.6245
-5.85784
-5.80894
-5.55293
-5.84156
-6.09369
-6.37572
-5.47325
-5.52257
-6.03531
-6.44232
-5.4736
-5.69091
-6.25472
-7.7057
-6.11521
-7.06999
-6.22684
-7.65822
-5.49414
-5.30125
-4.92979
-5.86995
-7.31865
-7.28197
-7.3318
-5.97114
-5.51322
-6.95205
-6.7813
-5.44739
-5.29737
-6.63084
-5.74468
-6.6234
-7.93125
-7.18365
-6.55567
-6.18017
-5.99059
-7.18715
-7.47531
-8.44793
-6.57349
17.6477
18.2403
19.1784
18.0869
18.8928
17.7345
18.7667
17.5766
18.1189
19.1223
-10.4482
-10.3323
-9.73959
-9.71961
-10.6674
-10.4801
-9.89255
-10.1003
-10.4314
-9.64729
-10.1048
-9.79099
-9.76859
-10.4288
-9.84045
-10.1694
-10.4721
-13.9054
-13.7356
-15.196
-14.7404
-14.4992
-15.0795
-13.3999
-13.4653
-13.2168
-13.5048
-14.8833
-14.5547
-12.7283
-13.8858
-14.0254
-13.8173
-14.0778
-14.6527
-13.1812
-13.6029
8.02268
8.42134
9.13066
8.56006
8.15777
9.34035
5.81484
7.38838
7.6628
7.31119
6.60434
8.75579
8.23882
8.76053
7.85924
7.42745
-17.0639
-16.3096
-14.4491
-14.4638
-13.8322
-10.0693
-13.241
-13.7452
-14.4235
-13.6184
-10.0146
-12.4919
-14.425
-13.0036
-13.8216
-12.1365
-11.3462
-11.3567
-12.2425
-12.5393
-12.9631
-11.4181
-10.7383
-10.7841
-11.5829
8.18101
7.26731
6.93801
6.98579
7.02465
5.67937
5.25969
4.73784
4.84876
5.33314
5.39576
4.55806
6.14149
5.36401
6.96751
7.097
5.30786
6.25065
5.94179
-9.99541
-9.91546
-11.5836
-11.1988
-12.2933
-9.97086
-9.65252
-10.8734
-10.8795
-10.0062
-9.88567
-11.1795
-11.1803
-11.8202
-10.381
-10.6833
-10.1961
-11.429
-10.5987
-7.82504
-10.0489
-7.82055
-6.4913
-7.99687
-8.28872
-7.13073
-5.64847
-6.52213
-8.58947
-8.14891
-6.94555
-7.00106
-6.40073
-8.3099
-8.58923
16.7057
17.237
16.4954
16.3428
17.4144
18.324
18.2943
17.31
17.232
18.0534
18.2659
17.3385
18.3061
18.7929
19.5024
18.9207
-7.91689
-8.35172
-6.09886
-5.26428
-11.5057
-13.2793
-4.69878
-5.35004
-10.907
-12.2826
-8.69503
-8.43426
-8.21296
-13.7677
-12.8762
-6.15466
-11.9777
-9.69056
-11.6462
-12.2466
53.8379
47.8803
43.5513
43.2243
52.3226
53.6167
47.1232
51.9346
46.1191
48.0985
45.6818
46.1272
42.952
42.8215
48.5274
16.5097
14.9669
19.9255
20.8721
18.7233
15.9281
21.552
18.1088
20.7291
23.8579
22.5536
23.8903
25.7698
23.2168
-14.4338
-15.0421
-14.5518
-15.238
-13.8137
-14.0478
-12.6609
-11.6856
-13.4741
-13.3761
-11.9739
-11.6132
-13.8669
-12.5612
-12.145
-12.6939
-4.58485
-4.25219
-4.2537
-4.32266
-4.23828
-4.6009
-4.44537
-4.62777
-4.74715
-3.96867
-4.02069
-3.98755
-4.61373
-4.72349
-3.96167
-4.43567
-4.3861
-4.7189
-4.51303
-12.2546
-12.2894
-12.0958
-12.9063
-12.8703
-13.1763
-11.8271
-13.0676
-12.758
-11.1421
-11.9179
-12.0065
-11.854
-11.6994
-13.4301
-13.0757
-11.6356
-12.1794
-11.8748
-11.9678
-11.227
-11.3334
-12.1357
-11.4775
-11.3296
25.8807
25.0343
25.081
25.556
25.7384
25.3145
25.0926
25.1417
25.845
25.6269
25.6978
25.4352
25.5646
25.3321
25.6627
25.7213
25.7145
25.4983
25.1479
25.8034
-8.1646
-8.91075
-8.1526
-8.70657
-8.21808
-7.91093
-8.00748
-8.76833
-7.86428
-8.12599
-8.31325
-8.47192
-3.43278
-3.34032
-2.96923
-2.77
-2.6502
-3.43336
-3.48351
-3.66835
-3.31442
-2.83063
-2.82611
-2.99226
-3.21211
-2.71436
-2.86441
-3.06391
-3.02242
-2.99215
-2.46044
-2.33738
-2.53016
-2.28477
-2.39369
-2.69541
-2.74904
-2.9591
-2.97784
-2.31372
-2.70172
-2.42137
-2.98547
-2.87667
-2.5399
-2.37396
-3.02932
-2.72996
-2.34901
-1.63507
-1.67883
-1.8573
-1.13603
-1.48725
-1.34298
-1.15157
-1.97259
-1.5626
-1.91968
-1.75804
-1.15416
-1.0997
-1.3668
-2.0745
-1.99111
-7.04794
-6.42041
-7.32359
-6.89105
-5.59992
-5.52086
-6.00426
-6.96209
-7.52374
-11.0952
-10.856
-10.8627
-11.1892
-11.0382
-11.1686
-10.9237
-11.2752
-11.1001
-11.1178
-11.1807
-11.1785
-3.09656
-2.8216
-3.09418
-3.08715
-3.03199
-3.1861
-3.24687
-3.27904
-3.35419
-3.07467
-3.63732
-3.54486
-3.59745
-3.70417
-3.50681
-3.52695
26.0267
26.1958
25.9869
25.7213
25.343
25.3488
24.9489
24.8923
25.1847
25.7341
-6.88416
-6.81135
-6.92563
-6.75434
-6.98665
-6.96696
-7.10881
-7.06249
-7.23561
-7.1589
-7.11221
-6.95671
-7.13402
-7.30543
-7.29183
-7.17254
-7.12577
-7.04782
-4.3849
-4.8182
-4.3887
-4.5429
-4.51087
-4.44318
-4.6967
-4.44375
-4.62034
-4.94608
-4.63147
-4.95061
-4.73333
-4.90809
-4.41974
-4.74817
-4.82257
-4.6875
5.47547
4.93141
4.37748
5.24315
3.4666
3.01507
5.80883
5.33421
4.17134
5.45642
4.53723
3.7495
4.39244
4.42418
26.2479
26.15
26.0186
25.8517
26.3012
25.8838
25.7042
25.7394
26.0495
25.8626
26.0496
26.1737
25.733
25.7038
25.5947
25.6362
26.0177
25.8145
25.9651
25.728
40.6226
39.1282
31.391
34.9041
25.1906
28.9884
16.3816
30.7042
30.1613
27.4202
33.0361
24.7529
36.0798
41.2488
37.227
45.1083
25.5756
37.2749
32.7832
-13.2653
-14.4984
-9.73396
-8.86758
-13.0179
-16.1688
-16.8106
-19.3956
-9.44048
-9.30151
-22.4966
-19.4117
-12.5717
-15.3203
-18.0267
-12.3841
-13.0702
-20.1737
-15.8727
-16.5984
-0.0503565
-0.311706
-0.0928143
-0.184725
-0.3657
-0.116869
-0.647784
0.0903179
-0.41725
-0.502848
-0.189498
-0.407595
-0.411376
-0.070209
-0.440582
-0.713627
-0.519179
-0.472615
-0.0640151
0.72603
0.404246
-11.1136
-12.7425
-2.86183
-1.80956
-1.81385
-3.71864
-9.02489
-4.55403
-7.11414
-4.84226
-8.38362
-8.51045
-10.1693
-9.56227
28.1513
28.1028
27.972
28.0473
28.3155
28.3324
28.2123
28.2405
28.0537
27.92
28.4302
28.2099
28.3724
28.3675
27.9976
27.9216
28.0865
28.2539
28.3829
27.9848
-1.5754
-1.67898
-1.1979
-0.826408
-3.24432
-3.3546
-3.64899
-4.38831
-2.70597
-1.55279
-1.289
-3.31986
-3.60106
-4.08816
-4.71133
-4.67006
-2.67496
-4.22132
-4.02466
-3.08695
28.2436
28.1183
28.2005
28.2427
28.232
28.2579
28.1826
28.3085
28.3738
28.3863
28.4549
28.1589
28.323
28.3025
28.4068
28.3908
28.2726
-4.83084
-4.76282
-4.90821
-5.1361
-5.03119
-4.7648
-4.57091
-4.88778
-4.98734
-5.1082
-4.60092
-4.28385
26.2531
26.0737
26.6226
26.6276
26.3811
26.33
25.9822
26.1926
26.4271
26.5849
26.6262
26.2591
26.084
26.2007
26.0076
26.2002
25.999
26.2656
26.3325
25.9937
26.2368
19.7989
19.3704
19.4616
19.8711
19.9209
19.1018
19.4857
21.0984
21.2671
21.0631
20.3743
20.0271
19.6597
19.5892
19.6326
20.2985
20.2017
20.1899
5.38239
5.69442
5.71185
5.20521
5.5532
6.26424
5.87446
5.81118
5.6557
6.82302
6.55444
6.83996
6.65908
5.74073
5.43085
46.3397
41.2485
35.3977
36.8233
43.1866
41.2759
52.7579
38.1007
44.9768
39.8656
52.3252
52.1325
47.8455
41.0916
-3.56896
-3.4008
-3.71964
-4.06652
-3.92688
-4.13015
-3.64914
-3.65316
-3.79445
-3.63165
-4.10869
-3.98327
-3.79177
-3.35744
-3.49611
-3.78757
21.9766
19.9263
21.5676
19.766
19.4225
19.8077
20.1092
20.1656
21.0231
21.4151
23.8828
23.3752
22.3876
24.7303
25.3097
22.7319
23.7458
27.4619
27.4171
27.0132
27.1156
27.2142
27.2738
27.4907
27.5307
26.9759
27.0957
27.4405
27.464
27.4222
27.2953
27.2533
27.4187
27.2209
-19.1688
-16.6792
-16.3055
-20.8942
-16.1767
-21.1551
-27.9856
-15.5427
-18.6359
-18.6754
-17.7229
-19.8981
-21.8258
-16.7826
-18.1402
-18.6226
-13.7041
-14.2041
14.6342
14.3091
15.8759
15.5699
14.8638
13.6232
14.0033
15.5
15.9872
15.6088
15.3475
15.6521
14.0236
13.779
13.1759
14.9185
13.8216
14.4061
13.4407
14.8923
14.2082
13.9873
-2.66019
-3.57212
-3.3104
-3.00082
-1.63931
-2.09674
-0.505883
-0.564693
-1.74525
-2.21551
-2.38775
-1.1714
-0.594042
-0.277589
-0.546353
-0.282678
-3.8018
-4.24762
-3.57393
-3.67299
-4.11087
-3.87225
-3.70485
-4.04545
-4.28753
-4.1451
-4.17799
-3.5225
-3.54924
-3.44108
-3.6231
-3.59365
-4.21352
-4.22451
-4.13129
-3.85802
-3.53044
-3.90522
-4.04419
-4.14701
-4.18774
-4.28561
-4.44533
-4.55928
-4.13106
-4.52065
-3.94127
-4.24065
-3.86859
-4.4543
-3.7335
-3.86869
-3.73395
-4.43738
-3.92086
-3.82787
-4.39007
-5.56064
-4.69629
-4.79616
-7.34282
-5.00723
-1.27805
-8.26247
-8.13411
-0.494774
-2.40032
1.20462
-5.3366
-1.01733
-5.11536
-3.55302
-7.03929
-6.69705
-4.51121
-3.04625
-0.0793978
-1.97612
1.02821
3.78565
2.36102
1.7584
2.19862
2.69711
4.16336
4.05026
3.15709
2.52407
1.77836
2.12355
2.20087
1.95207
2.8944
2.73371
3.66284
2.61901
1.96813
2.55478
-8.81961
-8.42426
-8.45693
-8.71859
-8.81831
-8.81072
-9.03316
-9.26637
-8.65728
-9.30233
-8.94012
-8.60131
-8.75164
-8.62368
-8.74814
-8.65363
-8.73589
-5.66475
-5.79105
-6.80004
-6.51484
-6.27245
-6.51795
-6.63246
-6.4108
-5.91088
-6.54871
-6.08866
-6.56925
-6.23222
-6.32502
-1.97435
-2.10752
-2.3939
-2.47918
-2.98321
-3.12367
-2.03823
-2.99568
-3.49964
-3.91412
-3.9115
-2.46385
-2.69999
-3.46428
-3.57194
-2.35565
-2.7297
4.37987e-05
0.0338893
-0.0801747
-0.0206812
-0.0382585
-0.0619597
-0.0822836
0.00634694
0.0157462
-0.0296966
-0.0991696
-0.157077
-0.336934
-0.188487
-0.0895269
-0.122579
-0.167941
-0.173977
-0.182279
-0.260802
-0.136287
-0.0807496
-0.274213
0.0347119
-0.123554
-0.181016
0.0188861
-0.256749
-0.190456
0.103126
-0.109932
-0.0366986
-0.034511
-0.121851
-0.350322
-0.0656685
-0.153059
-0.283466
-0.0529934
-0.204979
-14.549
-17.4987
-19.8571
-21.176
-21.4752
-22.8923
-14.8377
-18.8798
-19.9992
-14.626
-15.6098
-16.721
-20.9413
-19.8007
-20.8363
-19.0129
-17.5257
-1.47635
-1.49665
-1.83772
-0.788826
-1.36835
-2.08496
-2.31389
-0.713118
-0.993061
-1.798
-7.81437
-7.72503
-7.65585
-7.85426
-7.20127
-7.2037
-7.84387
-7.9224
-7.78966
-7.92892
-7.46591
-7.21742
-7.37321
-7.52869
-7.43689
-7.7336
-7.54141
-7.71709
-7.12332
-7.17396
-7.22818
-7.00606
-7.1913
-7.04999
-7.13759
-7.01822
-6.6317
-6.79126
-7.24175
-7.25691
-6.99488
-0.318025
-0.196972
-0.410516
-0.254156
-0.44284
-0.538921
-0.405587
-0.114601
-0.0144468
-0.169435
-0.386211
-0.37932
-0.0902509
0.0257043
-7.30868
-7.30492
-7.56738
-7.58898
-7.24293
-7.65967
-7.72114
-7.29338
-7.30385
-7.49237
-7.36672
-7.5291
-7.50976
-7.40524
-7.6626
-23.5589
-22.6995
-21.6501
-23.9156
-24.6487
-24.2078
-26.0591
-29.6361
-25.0117
-24.5282
-25.485
-29.1181
-24.1576
-25.2629
-26.2592
-25.1485
-26.4092
-26.5013
27.2151
27.2115
27.4641
26.8196
26.9324
26.8951
27.0019
26.8245
27.1404
27.1181
-9.53533
-9.63908
-9.6507
-9.87871
-9.57107
-9.84318
-9.48769
-9.59171
-9.43019
-9.4792
-9.5261
-9.71107
-9.84704
-9.69517
-9.83965
-9.51605
-9.6635
-9.65089
-9.53789
-9.73749
-9.77967
-9.64715
-0.224833
-0.240151
0.196935
0.19342
0.0650963
1.19074
0.18733
-0.420716
0.689866
0.868838
0.454611
1.2627
0.781861
0.608362
0.649176
1.26224
1.15978
-0.108496
28.8923
29.8644
31.1192
29.8132
28.4185
30.8795
29.0526
30.0016
26.3282
28.2157
29.7772
26.9626
27.2771
26.0343
24.7772
27.8903
25.7191
24.5823
25.6408
31.3558
29.9139
28.2051
26.3533
30.9504
33.4744
33.2084
33.3206
39.3463
37.0067
34.1071
38.0536
29.55
30.5789
39.1711
41.624
35.6432
40.3316
28.0955
28.2106
28.263
28.0738
28.1842
28.0752
28.2535
28.1952
28.0412
28.1781
27.9849
28.0193
28.2461
28.1802
28.1859
28.2494
27.5524
23.4007
22.9768
25.2756
26.3939
28.2391
26.2373
26.3256
22.6638
21.9841
26.5883
24.4733
26.0038
23.2842
25.3161
23.1327
22.8804
24.0942
24.6537
23.6066
24.2666
25.3619
25.1934
24.5132
23.7685
25.3706
25.7591
25.2465
20.2091
19.7804
21.9869
23.3666
11.6083
10.6256
20.58
20.4482
11.3538
13.569
16.0345
16.0237
17.6602
15.1686
12.8177
10.7062
26.1131
25.285
25.6392
26.1516
25.3628
26.6717
26.2747
25.4836
25.4979
28.3073
27.8777
27.5571
27.0128
25.912
27.0407
26.4814
27.5162
26.9091
26.2676
27.8011
8.35908
9.78643
4.79861
1.84382
2.83964
5.17415
13.2304
4.44255
7.98663
7.81181
2.13588
6.90938
7.29959
4.68175
7.8069
13.5757
13.3475
12.1622
10.3324
8.54587
17.0013
14.2161
14.4545
11.9999
15.3978
15.1264
15.3478
13.5005
11.9185
13.0682
12.7245
13.4969
13.7709
27.3054
27.3577
27.1498
27.0456
27.731
27.708
27.2468
27.0854
27.8883
27.8898
27.3074
27.6004
27.8704
27.8337
27.7231
-10.5027
-9.95071
-10.8315
-11.5842
-12.2696
-10.2649
-10.2565
-12.2564
-12.7381
29.8322
28.9607
27.9616
27.9089
28.6316
28.0208
30.2448
27.7062
31.45
30.0085
27.8168
29.6476
30.2835
30.6659
31.1138
26.9275
27.2167
28.9873
31.1613
29.8331
27.4148
28.2801
2.26102
2.98666
2.33154
0.474885
1.53452
2.43272
-0.724265
0.69392
0.895056
-0.996848
-0.0368773
-1.92606
-1.20188
-2.00633
-2.49435
-1.61436
-0.480537
0.992914
-2.91738
-0.0354283
26.0458
24.3914
29.0532
24.6052
26.4644
32.9485
30.2382
26.4148
30.1585
25.6777
28.0976
33.9125
31.7411
32.485
35.9316
29.2712
28.6096
26.8774
31.3519
25.3348
28.5101
26.2687
30.0698
34.5116
35.4145
33.4784
-6.39418
-7.30907
-6.65709
-6.20678
-7.19365
-7.60494
-7.2301
-6.9904
-7.48505
-7.21108
-7.25778
-6.73996
-6.45692
-6.57831
-6.52915
-6.90331
-6.3753
-6.7629
-7.10319
-6.63799
-6.77371
-6.90291
-6.78549
-6.66062
-6.63198
-6.64791
-6.03693
-5.38124
-6.03468
-6.25254
-6.0031
-6.26775
-6.00148
-3.70604
-5.69582
-2.90385
-5.38072
-5.11425
-4.19859
-5.52079
-6.46173
-6.39358
-5.7443
-5.38226
8.30498
7.77275
4.38176
6.3307
5.05747
3.10019
-0.268066
4.52107
4.84908
2.25998
-2.46932
1.22729
2.74147
23.4356
24.2229
24.5554
23.2145
24.8683
24.6542
25.0515
24.2097
24.328
23.3402
23.5056
25.3803
24.7663
-12.9451
-13.02
-14.1351
-13.5884
-13.3854
-14.6084
-16.3229
-15.3645
-17.1354
-14.3286
-14.3896
-14.1202
-15.5916
-10.6077
-8.75471
-8.56706
-9.11471
-9.05411
-10.0723
-9.94272
-10.0295
-8.40146
-8.54497
-9.2534
-8.43571
-8.03895
-8.08214
-8.36099
-6.54253
-6.50238
-6.40396
-6.12404
-5.89281
-6.4027
-6.21598
-6.38273
-6.05691
-6.35256
-5.87887
-6.27799
-5.82337
-6.12621
-5.81288
-5.70755
-10.1835
-9.71002
-9.65752
-9.42409
-9.77564
-9.434
-9.48521
-10.2209
-9.76069
-9.16316
-9.87321
-10.1423
-9.80927
-10.5817
-3.9535
-4.20135
-5.63173
-3.18238
-5.49865
-5.34552
-5.42242
-4.50269
-3.9862
-4.32168
-4.99693
20.9047
22.4588
21.5699
22.6942
21.96
22.8309
21.9631
21.2212
22.3571
21.4758
22.8003
20.6502
22.1777
30.3187
33.2622
35.6251
44.0302
41.8287
30.2675
47.4957
46.7017
33.75
39.3911
31.907
34.0724
42.4946
46.4475
49.2207
37.4164
39.2672
36.057
45.7856
43.7515
41.9184
38.9292
31.4234
31.4963
31.339
30.0953
29.8583
28.6119
29.0372
29.4135
28.7979
27.7768
27.8771
17.9332
17.2961
17.003
16.6128
19.0428
18.5592
16.8832
18.2752
17.5151
16.6217
15.8179
16.0766
17.7723
19.1681
19.3452
16.6315
16.1012
18.3252
15.5429
29.5937
29.8803
29.7664
29.7651
30.5041
30.332
30.1186
29.9554
29.9502
30.3523
31.1052
30.8163
31.2477
-11.8348
-7.58885
-4.93537
-8.71972
-7.09909
-2.60959
-2.8734
-2.69465
-1.60779
-5.8848
-3.68067
-11.919
-15.1973
-6.01653
-3.08386
-9.34386
-7.01844
-15.3582
-10.3456
-16.1231
-9.15619
-6.78908
-6.51008
-7.12184
-6.87959
-6.50217
-6.76198
-6.92509
-7.27737
-6.98588
-7.22817
-7.40148
-7.13141
-6.88711
-7.16702
-6.89374
-6.83433
-6.4664
-7.30897
-5.90513
-6.18878
-5.39592
-4.61456
-5.03871
-5.37595
-5.78232
-5.76352
-3.79066
-5.67014
-5.56872
-6.15007
-4.67175
-4.19348
-2.10378
-1.71224
-4.78254
-3.68896
-1.79504
-5.07293
-4.03404
-2.58806
-2.53981
-3.94117
-2.20485
-2.54442
-2.01193
-2.20848
-2.56668
-2.83973
-2.81372
-3.00914
-11.0127
-14.151
-9.79226
-12.6613
-15.69
-11.0007
-13.8099
-18.4931
-18.9571
-21.6177
-23.4096
-19.9846
-18.9081
-20.3447
-14.3051
-0.252855
0.438123
-0.158816
-0.535851
-0.706866
-0.465315
-1.53253
-0.0226132
-0.577019
0.391046
-0.0221338
-0.348209
-0.638114
-0.858894
0.070617
-0.501334
-0.55266
-0.288327
12.5502
10.433
5.79588
13.1977
-1.09074
-11.8394
12.7253
2.47828
11.88
5.78627
6.75373
-24.7515
-18.4751
-37.3596
-0.155834
-0.756987
-3.27643
-14.7609
-6.69152
-0.429728
-16.6408
-16.0674
-16.3688
-15.0884
-15.2323
-14.4695
-14.4658
-14.2935
-15.255
-15.1894
-13.8541
-14.2454
-14.7133
-14.0742
-13.6663
-12.0355
-12.3669
-14.6338
-10.119
-10.7277
-12.2134
-14.5695
-12.054
-11.3592
-14.2784
-12.9462
-9.02622
-9.7441
-9.08338
-9.33349
-9.71174
-9.91309
-1.47109
-2.18549
-0.493797
-3.26894
-7.32527
-2.07558
-12.2251
-11.8193
-12.4625
-12.8243
1.20249
1.33544
0.19048
-0.755466
-5.61695
-7.28758
-7.35598
-8.47033
-0.828958
-4.67419
-1.92218
-2.00999
-4.71854
-6.29242
-6.35953
-5.73614
-3.07052
-2.92089
-4.0007
-1.4025
-1.35683
-4.48917
-6.5372
-3.54077
-2.4845
-1.3257
-0.739907
-4.84
-2.61026
-2.97053
-4.18927
-2.95465
10.1611
10.7406
7.78445
8.16088
10.8961
8.99561
8.44611
9.13828
9.57211
9.16102
8.09893
8.55802
8.81686
7.7727
10.5494
-12.8696
-7.48581
-8.71706
-10.2754
-12.213
-9.69379
-6.63947
-10.8291
-5.95615
-5.25304
-6.73152
-6.43003
-6.49988
-6.67237
-6.7266
-5.70385
-6.97437
-6.87291
-5.97804
-7.02306
-8.3842
-7.99238
-6.9475
-7.10498
-8.15942
-7.96784
-8.11964
-7.24146
-7.79295
-6.82797
-7.28867
-6.52006
-7.73772
-7.36127
-7.9332
-7.20917
-6.89649
-7.41067
-9.56125
-9.36018
-9.8566
-9.67794
-9.36755
-9.71283
-10.3129
-11.3933
-10.8262
-10.4522
-10.024
-10.4893
-10.534
-11.3497
-10.8287
-10.0882
-10.4566
-10.913
-0.616357
-0.515067
-0.497445
-0.775187
-0.559996
-0.78801
-0.569832
-0.610811
-0.783822
-0.857654
-0.613363
-0.949212
-1.20836
-1.27157
-0.56504
-0.766919
-0.777506
-0.657185
-1.14996
-1.11167
-0.705819
-0.759259
30.433
30.0853
30.5524
30.1817
29.6245
30.2764
30.7915
29.6992
29.824
29.717
29.1427
28.8526
29.068
30.0522
29.5615
29.3276
-11.2715
-9.37137
-7.38373
-8.74501
-13.7463
-13.5273
-8.28906
-8.09867
-10.1015
-13.4544
-10.525
-9.93364
-11.3565
-10.1729
-14.0771
-10.1
-12.2694
-15.0848
-3.46703
-2.18344
-1.85515
-2.90471
-3.18806
-3.31481
-2.25963
-1.98878
-2.58892
-2.60595
-3.69541
-3.5315
-3.53399
-3.86552
-2.93409
-3.42117
6.40218
7.04463
8.50599
7.01388
5.90321
7.77365
6.24843
8.2221
8.72248
6.95721
7.53598
7.34032
7.1191
8.51253
6.58307
5.14758
6.49344
5.08109
5.50939
6.43121
3.6898
2.14705
0.0627872
-0.142178
-1.74236
-2.10686
1.64666
-3.03917
7.5633
6.0468
-4.70182
1.09368
5.66343
4.38438
-1.85391
1.57584
-8.68973
-8.40501
-8.9845
-8.86169
-8.12991
-8.847
-8.81759
-8.5544
-8.42371
-7.63943
-7.6164
-8.05009
-2.68415
-2.57263
-2.83634
-2.31354
-2.66812
-2.68617
-2.78139
-2.95365
-2.21659
-2.51958
-2.42733
-2.3638
-2.94361
-2.63253
-2.15246
-2.31967
-2.69419
-10.1462
-10.325
-10.2498
-10.1946
-10.3157
-10.6258
-10.3522
-9.87742
-10.2759
-10.0571
-9.9495
-10.2253
-10.433
-10.7608
-10.3813
-10.2748
-10.6651
-10.2314
-4.41122
-6.07717
-5.69315
-5.29243
-6.27101
-6.19048
-4.53492
-5.40684
-6.71942
-4.83676
-4.64715
-4.9207
-4.71578
-5.63523
-4.74763
-4.74746
-5.02757
-5.43453
-6.29407
-5.74564
-7.4978
-7.43381
-4.92847
-5.04329
-6.5653
-6.35396
-5.33871
-5.6836
-7.0114
-6.91035
-5.82381
-5.63644
11.6719
11.3646
5.79594
8.66301
10.6163
11.3876
11.2485
9.98597
7.016
9.88544
6.76716
9.33535
9.21513
7.73725
30.7746
30.4135
29.2886
29.4894
29.5164
29.8588
30.5239
30.239
29.2059
29.4158
29.3033
29.9792
29.8031
30.3467
-0.936243
-0.759785
-0.990228
-1.09029
-1.13387
-1.28262
-1.03253
-1.19688
-0.953213
-1.15223
-1.38395
-1.28142
-0.996228
-1.08758
-1.32477
2.20907
2.49165
4.84962
4.97658
1.96927
3.16854
3.18142
3.46919
4.70368
4.88233
1.31796
1.6332
2.08223
2.5723
3.55285
2.36246
3.21226
-10.6287
-9.37162
-7.19859
-8.368
-10.6158
-8.11357
-7.13128
-10.1754
-8.60561
-10.32
-8.10683
-11.4065
-10.0829
-10.8042
-6.99009
-7.79113
-9.10112
-11.784
-10.2325
-7.36181
-9.01817
-7.06943
-7.6352
-7.73143
-7.64644
-7.38961
-7.54327
-8.00278
-7.6407
-7.94295
-8.18245
-8.2752
-8.02674
-7.88396
-8.04955
-8.33812
-8.2229
-6.75633
-6.79902
-6.63628
-6.73646
-6.41181
-6.46342
-6.0166
-6.46002
-6.36881
-5.9401
-5.95993
-6.30448
-6.21198
-6.33932
-5.83597
-6.12818
-9.25578
-9.77057
-9.62621
-9.83108
-9.21452
-9.90442
-8.94301
-9.72886
-9.87036
-9.33096
-8.34723
-8.74971
-7.99805
-7.80374
-8.11645
-8.98914
-8.62973
-8.51351
9.26874
9.35015
8.38597
8.06885
5.41943
3.5809
10.3823
9.65045
2.79653
10.655
8.18961
6.89163
4.12566
6.85294
9.13273
9.75305
8.48313
4.63892
5.93795
5.38545
4.50291
4.50892
5.75909
6.44903
5.22943
8.12342
7.94064
8.1417
6.38127
7.82533
6.91798
5.5074
24.4788
23.8648
23.1947
24.2083
25.412
24.106
25.6215
25.665
24.2434
23.4961
22.5905
24.1439
22.9809
26.768
25.7895
-2.98301
-2.8791
-2.57554
-2.44779
-3.4381
-2.36659
-2.70571
-2.25727
-2.99042
-2.55139
-3.05669
-2.37021
-2.2592
-1.35404
-2.40486
-2.32547
-6.84279
-6.67864
-6.20647
-6.33666
-5.70451
-4.84637
-3.09369
-4.65152
-5.18569
-6.73233
-3.07834
-5.07694
-6.58531
-29.9482
-23.5116
-21.6367
-15.8025
-30.0182
-35.4322
-10.9857
-18.588
-15.0475
-20.6789
-22.138
-26.9114
-24.3521
25.0123
23.8787
27.6798
25.3947
26.7597
27.5478
26.0907
23.6091
21.7239
22.5023
25.2521
26.3208
25.4003
17.8816
19.7914
25.7847
24.9311
19.4785
17.9968
20.3056
5.56399
5.4796
5.50687
4.46442
5.54829
4.71547
4.35576
5.10232
5.55372
5.54756
4.83693
5.8708
5.62315
5.10149
-1.85654
-1.48676
-1.52991
-1.7627
-1.37151
-1.84351
-1.983
-2.01243
-1.73861
-1.86911
-1.99572
-2.17763
-1.9816
-1.34163
-1.50735
-1.22364
-1.18072
-1.7046
-9.39966
-8.80989
-8.56067
-9.16703
-9.93142
-9.25071
-9.41572
-9.10769
-8.94484
-10.0888
-9.14683
-9.70553
-10.6139
-9.27253
-9.36016
-9.16947
-9.45338
-9.52032
-9.86959
-8.30391
-2.72364
-2.2325
-2.16039
-2.5043
-2.51793
-8.41399
-8.37948
-9.76763
-10.1525
-9.10495
-9.04475
-8.71866
-8.83384
-9.49296
-9.02591
-8.77049
-9.73512
-8.96822
-8.93291
-5.45611
-5.29969
-5.64598
-5.59017
-5.52475
-5.52732
-5.88221
-5.76585
-5.49707
-5.95136
-5.5778
9.35149
9.6574
9.68669
9.43515
8.85549
8.78364
9.13625
9.59022
10.0889
10.0732
9.53129
28.741
29.5308
28.0956
27.8783
29.0932
30.6813
31.0975
29.0307
29.0721
32.4148
30.4044
34.6387
29.4533
29.0677
30.508
10.3558
9.5637
6.6925
8.05529
7.47967
8.86389
7.25264
5.81856
5.99471
7.29724
8.88106
7.94662
9.34896
6.11844
6.6393
8.07574
4.47131
4.50938
6.53542
4.05829
2.81416
21.5014
22.3472
21.4995
20.4836
21.6021
20.7371
17.9157
17.1359
15.5682
16.1976
16.7909
16.3395
18.976
19.1628
17.3115
18.1216
20.2279
35.6921
37.844
38.2712
35.7334
34.8596
36.5739
35.7959
36.5026
37.8291
35.0947
38.7635
35.5728
34.6051
41.251
39.8426
39.7301
36.4058
39.4406
40.4106
36.8498
-3.8388
-3.05861
0.654788
-0.484896
6.0644
-3.37474
-1.80949
3.4665
1.48415
4.00386
9.26256
8.65723
3.35856
6.87735
-11.8977
-11.7712
-11.7257
-11.5534
-11.8728
-11.9546
-11.4437
-11.8997
-11.6847
-11.2629
-11.525
-11.512
-11.6178
-11.4118
-9.27146
-8.98876
-8.96503
-9.22764
-8.82251
-9.24355
-8.83254
-9.27515
-9.04327
-9.18341
-9.03862
-0.128674
-0.082737
-0.0123109
-0.137422
-0.22421
-0.106008
0.000530501
-0.0014964
0.0156879
-0.134681
0.0230524
-0.0374342
-0.0704189
-0.114513
-0.185471
-5.89239
-6.08112
-5.88076
-5.94379
-5.97726
-6.22062
-6.31926
-6.03652
-6.25019
-6.87885
-6.87359
-6.76802
-6.79326
-6.27237
-6.13828
-6.02296
-6.29985
-6.19709
-8.34937
-11.5435
-8.40683
-9.7507
-8.42875
-11.089
-9.80254
-8.49011
-8.28107
-8.66916
-10.7939
-7.84839
-9.72245
-10.3964
-9.55262
-10.5663
-8.56546
-9.39795
-7.0481
-9.89391
-9.0256
36.0255
39.6688
38.2171
40.026
35.9884
40.2198
41.1569
38.4667
42.5544
44.2609
40.7513
32.6748
33.502
37.9523
33.3017
1.46718
1.69605
-0.107815
0.305947
1.9379
0.328656
2.44373
0.908193
0.786189
0.328499
18.4962
18.4485
19.0876
19.0989
17.6991