/*--------------------------------*- C++ -*----------------------------------*\
  =========                 |
  \\      /  F ield         | OpenFOAM: The Open Source CFD Toolbox
   \\    /   O peration     | Website:  https://openfoam.org
    \\  /    A nd           | Version:  10
     \\/     M anipulation  |
\*---------------------------------------------------------------------------*/
FoamFile
{
    format      ascii;
    class       surfaceScalarField;
    location    "3";
    object      phi;
}
// * * * * * * * * * * * * * * * * * * * * * * * * * * * * * * * * * * * * * //

dimensions      [0 3 -1 0 0 0 0];

internalField   nonuniform List<scalar> 
146459
(
-1.69484
2.51596
-1.0991
0.277982
0.805603
-0.976831
-1.52361
-3.16253
4.42942
1.24907
-1.04459
-1.31233
-2.26822
-0.711528
1.87365
1.1061
-0.585912
-1.68231
1.68502
-2.21461
-0.447239
6.78985
3.10004
-8.50752
-1.38237
-2.39759
3.81186
5.37559
-0.342151
-2.73719
0.759008
1.26666
-2.42278
-1.99671
3.28747
1.28339
-24.5218
43.1778
-21.4747
2.8187
-26.4023
17.2788
-15.3983
26.0791
8.97372
-15.579
-19.4738
49.5344
9.34158
-32.7969
-12.9656
-20.8986
7.46197
19.5723
-6.32625
-4.27231
47.0222
22.0845
-17.4009
-1.89101
-25.9959
-32.3784
37.4757
-10.2768
12.8267
-28.5457
-35.967
8.28935
38.5658
-6.24821
-19.4909
11.6384
4.87878
22.0486
8.94417
22.0042
-4.13512
-26.8132
-0.149076
22.325
-13.2318
15.1083
6.60142
0.294432
-9.39294
8.91251
15.5887
18.3564
-16.885
5.13
-10.6455
21.0248
7.97714
26.0917
-15.2334
28.4264
-39.2847
13.3479
3.35084
-8.51818
20.9951
-12.626
-27.8867
15.7612
-10.3212
-3.67509
8.79077
-22.8212
21.4412
14.7279
-9.23142
14.8366
30.7567
3.72949
-13.045
8.89111
8.42893
-3.41039
-3.71653
0.521109
6.60581
-6.46819
-3.17402
6.23182
6.77892
-6.13923
-4.35622
0.591936
4.13352
2.05346
7.63955
3.01846
-10.0661
-16.7653
-16.2196
18.8992
14.0857
-16.4209
20.1452
-3.79499
0.0707114
-4.90115
-0.231578
-11.2882
-14.4897
-1.358
-0.917676
-10.9222
-5.02375
10.0007
5.94524
-3.62212
16.0526
7.71476
-14.6909
-2.81969
13.7156
-13.8634
-5.72866
-22.3735
4.13117
14.6202
-15.5898
-7.01525
2.80704
-15.9681
-3.05852
-8.1152
9.56221
-10.4548
-20.1381
-10.3197
-8.38612
-2.30218
18.1192
-7.43095
-8.17329
-0.75887
0.546041
-11.7005
21.6323
-12.234
-8.45441
0.689177
-0.408051
9.3504
-1.07436
1.1683
-9.44434
-5.41343
6.30942
3.13715
8.99253
-8.94097
-3.18871
-5.62585
8.763
11.0393
0.422749
-12.5364
-0.802816
1.52291
8.27244
-0.341291
-11.3322
12.8418
1.27968
-9.7979
-13.8958
1.39248
-12.9574
0.230234
-0.152318
-0.252805
0.174889
-0.607164
0.897821
-0.0604227
0.951621
-0.385535
-1.17325
0.60508
0.177517
-0.934915
1.13901
0.363891
-1.01184
0.539355
0.219684
0.570027
-0.630249
1.24381
-0.176538
-1.20424
0.136967
0.0789413
1.04088
0.123993
1.35478
-1.66137
0.781317
0.396922
-1.50759
0.794236
1.25271
0.0229848
-1.35306
-1.22499
0.969828
1.0494
0.126352
0.25385
-1.00676
0.775891
0.0194348
-3.86884
9.74555
6.51009
-12.3868
-1.9844
-16.3865
5.2961
13.0748
-15.4713
9.61802
-9.40139
-22.4564
-6.06225
15.3308
-9.26855
-11.7398
13.26
3.77583
7.5472
-22.9891
6.04048
-10.2548
9.01549
-6.41722
2.46287
-5.06114
-0.616282
5.58706
4.04471
0.137501
-1.26055
-5.29418
7.95818
-1.61454
-6.20614
12.1905
4.96742
-9.19971
6.44658
5.12761
-6.90939
9.37226
0.327584
6.9137
-8.50183
-9.55516
8.2682
13.2399
-8.27251
0.00431058
-6.55538
0.880616
-6.30336
11.9781
-8.99972
-4.61469
7.05903
6.04443
-7.00752
9.86847
-8.90537
0.142313
5.90211
-7.50281
-7.40424
15.7877
-0.294388
-9.27406
0.568731
-6.59774
-4.19573
-10.655
7.34792
-10.7646
1.95417
-0.0581261
-8.66645
-2.04001
-7.62922
-1.70297
-4.54025
6.45543
-9.5444
5.49922
-17.047
10.7681
-0.341019
-0.558649
9.26601
10.0064
-13.1736
-0.989647
4.39822
12.8374
-9.86536
-7.37023
10.6221
0.451888
-6.67573
4.4028
19.0566
6.49794
-11.9956
10.6005
-5.10278
-9.90442
20.8052
6.18224
4.90742
-23.0509
11.9613
4.7065
-10.5199
5.19792
-10.1559
16.7324
6.98268
-15.3683
-8.34679
-5.61507
16.1514
6.19601
12.1249
-3.90232
-13.8377
9.37111
-0.394195
-1.99424
6.74266
18.7799
-2.21586
10.8141
-8.99243
10.9961
3.19713
-2.06836
23.8106
-6.07181
-6.28085
-7.5837
-2.08193
15.9465
-12.5569
-8.76433
15.0404
0.0596232
-7.64333
-12.5733
0.0759962
-1.24257
-23.8153
16.2935
6.31136
-19.0763
11.5223
-7.89907
12.1285
-20.0214
-9.89257
22.0149
12.3095
-27.3154
-5.01546
2.41689
-3.05092
-18.2785
-2.48589
-12.1593
-3.46489
-5.22643
-23.8869
-13.4679
-10.5951
-6.79068
11.6771
-0.93386
-3.26654
-7.47666
-5.34589
0.110078
5.0139
0.221908
5.53908
-13.3965
2.51155
-9.41728
8.53104
0.99632
8.96687
-12.8451
-1.51816
4.02715
9.16806
-13.4842
4.69002
7.27598
-0.946395
-2.45793
-10.0798
7.41499
-3.33495
11.1819
-3.16141
7.00885
12.7041
1.26788
10.1743
12.9668
0.114884
-6.02505
8.0219
-2.11174
-8.20099
10.9764
-2.66052
1.31377
-15.5398
-14.8802
-1.35414
13.3695
2.86483
11.623
-25.1894
10.2688
16.39
7.55054
-15.9186
-7.34592
8.30177
15.4341
0.204627
1.18253
8.92862
0.865248
11.3445
3.20747
-0.00925592
17.2396
-10.4735
21.8087
-6.39933
5.48363
11.3907
-10.475
-8.80409
4.72306
-2.3183
-18.3631
6.08183
3.47721
-7.0752
-10.4758
23.0346
6.3603
-8.71244
-4.17594
-6.29982
-3.82398
1.50815
-16.9301
19.2459
20.9016
-21.4956
-3.23003
3.99216
13.5547
3.35474
16.6148
-1.83756
-13.2691
5.31125
19.0357
-7.73211
5.79771
12.1117
-13.9172
15.6118
3.90058
-19.4834
-0.0290253
-2.01312
17.6249
-13.8865
15.9495
-1.29854
20.8803
-14.2705
19.621
-15.1219
0.752815
6.03743
9.45957
-16.2498
4.32308
6.63998
-10.2102
8.0375
6.96353
-10.6779
-2.78931
17.2241
-6.39729
11.3205
-8.07237
0.0791954
6.56079
9.53876
7.28998
-12.0508
9.34541
-4.58458
-2.50523
15.1101
-5.3149
0.179503
6.78403
0.90824
-1.63855
10.447
6.74029
14.6821
11.7981
10.0948
-4.8271
-17.0659
-4.42101
8.77965
7.43949
5.67384
-12.2426
0.7782
17.9411
-6.47669
-6.87414
3.41117
-6.19165
11.8655
-16.6969
-4.97536
12.3376
9.33467
11.167
-6.85061
-21.0133
15.7229
-9.02625
-15.3139
8.61722
1.71773
7.95663
6.04855
-5.90788
18.5516
-20.704
8.14748
7.38561
2.11979
-16.7404
7.23504
6.1648
11.5731
-10.3523
-6.05609
-16.7107
6.00843
16.7584
-20.1429
3.44761
10.6392
-4.30636
-5.91838
-9.91821
-13.9337
-7.08334
5.58529
6.60604
-10.0716
11.7501
11.2875
0.586378
-0.300786
1.66953
-5.15001
-6.33116
9.81164
-8.29285
15.9708
-11.2775
9.57512
12.0795
-11.3918
-4.17702
7.17168
-10.5082
-1.24192
2.04389
-4.29444
-10.8486
8.37579
6.76723
-9.1481
4.85366
8.64227
-1.77766
7.94574
-14.8103
-0.505828
7.27452
-15.0638
6.0116
6.57547
2.3444
-1.64535
-0.8421
-6.62879
0.733822
6.73707
-8.68074
-1.26455
9.10319
13.8616
0.101302
-3.87318
-10.0897
14.3151
-9.13429
-2.80154
-0.559143
-0.0870677
-5.85863
0.127869
5.81783
-8.46559
8.37852
-3.91696
-6.51059
7.53203
2.89552
7.8466
-11.7636
-8.44316
-0.0224297
11.784
0.821501
0.648606
-13.2541
-0.00198969
11.786
0.711019
-8.33268
8.80706
0.451096
-8.60955
8.86214
-0.0570668
1.32177
-7.35832
0.177914
3.67332
-6.19621
-10.6164
7.75478
-12.6806
15.5422
-10.4133
-0.203152
-4.59542
17.2643
-4.91413
7.21214
-7.4743
-9.24892
9.51108
-3.72788
10.94
5.99823
10.9766
-10.0232
-6.95165
-4.41503
8.14292
-5.23546
-10.3818
-3.02851
1.32452
6.98367
13.5577
-16.849
-3.69238
-11.4054
13.7936
3.5858
-18.8444
-13.3378
-1.09606
-18.9407
9.1887
-0.884657
5.61835
-6.20942
1.47573
-9.3156
8.43094
-8.11622
0.261878
-5.33343
-6.04638
-2.06984
-8.44683
11.0022
2.51201
-22.8298
3.43222
1.36052
-6.06226
0.0158829
-10.5737
7.02346
-6.53549
3.16938
-9.72749
-1.51305
-5.02244
8.58864
-3.46387
-12.119
6.99423
4.82532
1.66894
2.09438
2.89374
1.70425
-8.06186
-1.54632
4.44006
-6.14497
7.24262
-2.64397
8.89006
-13.3308
2.92701
-3.23543
4.07264
6.40541
6.03309
-0.378464
-6.78807
-2.85952
4.07033
1.43386
-2.1837
-4.59048
5.34032
-0.382025
-1.01326
2.82914
-0.89428
-1.17473
3.97354
-1.90453
-2.80359
3.28506
-1.37575
-4.75919
9.21899
-7.26338
-0.785323
-3.97386
0.166134
3.98101
-6.33084
-1.51774
-1.83416
2.17717
-1.54615
-0.353616
2.61948
-3.9995
-5.81354
5.74915
-17.0915
17.1559
-20.592
2.84533
11.9331
-2.26609
-10.0428
-8.28313
16.6638
-10.7618
-8.16808
10.6129
-5.63662
11.6875
-4.21931
13.7986
-3.83019
9.23892
9.9576
-2.39678
-18.3226
4.32098
-15.3862
-0.725021
-0.980298
-7.32987
-18.0991
11.7375
-6.40604
6.9091
-12.2406
12.0158
-1.00335
-2.13748
6.45846
-16.1327
-4.77161
8.24405
8.5434
2.81462
0.533354
-3.20938
-0.138588
-1.89006
-0.488763
5.19344
-1.3567
-1.10775
-0.841737
1.46072
0.408378
0.667037
0.475215
-1.55063
0.949574
1.7646
-2.3058
1.61661
-0.488389
-0.53664
-0.0827188
-1.93317
-0.581826
-0.259911
-0.643252
-14.0453
13.3021
-13.9361
14.6793
2.54
-3.69094
-12.8943
3.77096
11.6215
-20.2551
4.86267
6.10761
13.9977
-16.3344
-5.05172
7.59172
13.6591
-6.6607
-0.890809
-0.396076
0.602803
13.4524
0.00755151
13.9902
11.629
13.5941
6.57733
-6.56635
-14.3805
12.2175
8.72943
-11.0861
4.79667
-0.276928
-2.67695
-3.63433
-8.06927
-4.6529
-9.11014
7.53714
-7.34467
4.6042
-2.84442
12.8105
-11.3345
3.1214
-4.5974
-8.48018
14.2609
7.0298
-6.76569
-5.34882
-14.4863
-3.61388
9.7575
-6.6361
-9.53606
-3.9757
6.16709
-9.99067
-4.1983
-10.6118
-2.38594
-5.44046
-0.122864
7.94925
10.6614
-4.67408
-1.79955
-4.1878
-7.04401
1.90538
2.69759
2.44104
-2.0855
8.64366
-6.55817
5.01982
-7.10531
-5.85447
0.508764
18.0998
-12.7541
4.48549
-10.6978
0.357856
-12.1822
-5.42863
18.1196
-9.65771
-5.55917
3.03463
12.8777
-10.2214
-14.4311
11.7747
14.1155
-6.66642
-22.5461
2.66696
1.41953
2.80692
-5.39984
1.17339
3.71811
-4.40306
2.10449
6.6109
-5.94334
-4.97217
4.30461
0.607519
5.4652
0.538179
0.569801
2.84464
0.785331
3.50258
1.23911
-5.16051
-1.47845
-2.95621
-0.207741
-0.504433
-3.82532
5.54219
-1.21244
-1.70052
1.98142
0.912402
0.221023
-6.29393
1.16661
-3.21042
-2.67712
-6.55713
5.40893
-5.65057
1.27293
1.2463
-6.96862
-0.841607
-0.875545
-4.83998
-5.32557
-3.67178
4.04254
-7.85641
-5.24547
5.47267
7.62922
-0.729874
-2.44226
-4.68428
8.42189
-4.22229
-4.92948
-4.6078
4.99004
8.03965
8.49676
-4.23578
-8.48327
-0.482984
4.37195
9.78009
-3.53402
-8.68833
1.44351
3.0911
10.6505
-0.187821
-7.68409
3.52933
-1.12719
-10.7927
-11.6677
7.00653
2.82625
-6.3549
1.71989
5.28461
-7.83143
0.826924
-6.12523
3.89888
3.94625
-14.554
-0.287513
7.97472
6.86683
-5.15126
-0.925869
-8.47689
8.4067
-1.41136
-3.0962
-3.89914
-5.15702
7.43849
-10.184
4.73942
-5.28315
-10.0521
2.3859
-3.16758
6.06629
-2.71467
8.99944
8.5048
-4.35302
-5.56315
-2.03717
2.71054
-11.9199
3.9868
0.0901488
7.84297
-5.57232
-7.27346
9.24685
-1.49199
-6.88736
6.5713
-2.76595
-8.15837
4.16818
0.365948
-5.01645
1.77735
3.32925
-4.78993
-5.79884
2.77795
-9.04787
-14.477
11.9506
14.9221
-12.3957
-2.56423
-17.0391
8.19715
11.4062
-25.8192
9.43363
13.8213
8.68779
-13.1764
-12.5505
-9.77647
-7.35493
0.694579
-11.8063
-1.20676
12.3184
-1.08578
11.2158
-9.43549
12.4262
-13.1985
-0.31348
-11.0499
9.47357
9.7735
0.827915
-1.6609
-13.6441
-15.7459
15.0495
10.13
9.27688
-11.2374
15.2031
-12.5533
-0.945116
1.97104
-2.51393
-1.4678
17.1022
-13.6633
0.523617
-2.42481
2.28407
-0.382878
0.102032
0.421585
-1.77172
-0.433081
-0.507471
2.71227
-1.66969
-9.11613
-2.79925
6.70249
5.21289
0.0190656
-1.40565
-7.72954
4.03684
-2.87088
-2.83565
-0.632766
4.23652
-7.10654
4.23742
0.0698628
-1.13562
-5.95185
-0.0588292
-0.18131
0.661724
-3.61926
-0.242077
2.01868
-4.45784
-0.680938
6.75066
3.31441
3.89659
8.26927
-15.0739
2.908
8.46817
-11.6882
7.11663
-18.4837
-5.58771
11.2631
12.8083
-15.6926
0.0508174
-2.842
-6.3403
-12.0185
16.9077
1.45102
8.24114
-4.7597
-9.82174
7.67543
-7.38871
7.98254
-0.186379
16.33
-9.27642
-1.49047
-0.921322
-16.1091
10.8935
8.57296
-24.2261
14.7803
-15.9053
7.43862
-14.5582
0.360438
17.5315
-2.70036
10.3759
-5.05209
12.2076
21.4527
4.46695
3.83149
-7.12065
-5.39917
12.423
5.5296
-8.24265
-9.7099
3.69895
4.93992
3.78408
8.72005
-3.35991
-1.52864
3.3907
8.42045
-1.18743
-3.80738
8.38552
-2.6601
4.29891
-5.11481
-12.9048
6.35189
7.60076
-9.53449
5.63269
9.10887
-2.17011
-1.40916
7.02126
7.02753
2.88936
1.4718
6.68273
-10.1948
-2.69959
-0.844446
-17.593
-13.0799
-4.12218
2.06112
23.6035
-21.5424
-17.4736
0.149183
13.2022
-15.4383
-3.66603
1.63077
-1.86739
-12.8047
16.7332
-8.67327
6.95506
-7.44384
-11.5076
3.51306
11.272
-4.57026
-14.4274
7.72558
18.2812
3.08281
-10.092
-7.73081
13.2073
7.69225
9.79914
-6.81052
-10.6809
15.0102
-7.56977
0.251814
-19.5863
8.47623
3.37925
-6.70434
-14.281
14.084
-2.93686
-4.63717
-10.3764
-16.0179
-10.1621
6.65033
5.99473
-2.48292
7.74146
-12.8997
-5.00386
-10.2978
13.2594
3.02059
-5.98216
11.4949
-16.4304
-5.36235
2.94363
0.0587032
8.49257
12.4776
3.72547
-13.8828
14.2045
6.3286
0.141924
-6.28324
7.6033
16.141
-17.5963
-6.14802
14.6593
-6.91405
11.9462
-2.93085
1.96781
10.6469
-0.137164
16.2629
-4.81465
4.6927
15.5195
15.4027
1.62684
12.2871
0.894915
16.5208
-1.89619
16.7263
-7.82685
-6.9369
2.77734
11.9864
-8.94795
-2.47894
3.60004
0.751824
-10.3456
0.645785
10.8206
-11.8372
1.76847
5.49034
-9.62525
1.65597
-0.573349
4.45704
5.15508
10.5935
-10.2583
-6.55787
14.4903
-5.93183
-2.92925
-0.764169
3.26741
-7.55609
-1.64315
2.49979
-9.57793
-1.67935
-7.65809
-4.26058
2.13457
-4.43186
-4.06235
2.63378
8.95185
-7.52328
2.98177
-4.25946
-2.78466
-1.78231
5.06611
-6.21305
-7.523
2.68908
-6.22058
-11.3908
24.0507
-6.50204
-6.15784
3.97499
-15.2958
-0.070029
4.9084
20.023
-20.9564
-1.06917
26.9645
-5.02885
-20.8665
5.74425
14.2592
-31.7814
11.778
19.5168
-15.6776
3.96691
18.3781
1.70568
18.5734
5.41651
-2.06863
17.2036
3.43838
15.875
1.57321
13.8999
18.8088
-7.52802
-7.05208
31.7837
22.2469
26.1199
-14.7939
7.32347
-2.19167
-9.88632
4.75452
-10.1762
16.0125
1.48719
-12.087
4.19153
-1.67311
9.56862
-4.99539
-12.3666
18.8892
-1.52727
14.3917
-6.19951
-13.1876
-1.38567
3.69037
-10.9381
3.74662
4.99978
18.4028
-18.6073
-9.68182
-9.7053
17.9319
-7.05466
4.83227
0.836725
-2.22104
-11.0331
-5.12425
-0.981551
-3.84296
-6.02694
-8.73739
-15.4397
8.00376
-2.26933
-7.61866
-11.664
-4.56791
-6.58328
-2.6867
-10.3951
5.46318
-9.47564
4.03649
0.290088
1.73971
-7.16871
3.71592
7.48928
0.923312
0.907417
4.57448
-0.150955
-1.64557
3.52402
1.34054
-3.27735
-0.919716
7.91299
-3.65053
1.29649
8.03201
-4.6955
-0.980097
-2.35641
2.87993
7.59035
-2.43827
-1.5172
6.81799
-1.22167
5.48424
-0.689618
-12.1835
-2.1576
15.0307
-8.57431
9.86088
-1.97618
-13.6343
6.84077
-2.45991
9.2534
-1.7633
-0.038142
-6.77287
-2.84604
-11.1007
-9.9317
9.92503
-2.15093
-11.6926
-2.00859
11.4976
2.20357
-5.42839
-19.8984
-3.35594
0.265012
-6.12379
5.54347
10.4668
-9.88648
-19.0252
-0.420317
13.3217
-6.68673
7.66598
-14.5129
13.5336
7.10915
-19.2243
-11.8795
-2.77512
11.2986
-5.4887
-5.87047
-10.259
0.410616
12.5957
-3.48989
-9.51643
16.1254
-4.09248
-11.6223
-4.97145
14.9932
2.574
15.0011
-3.84716
-2.59515
11.0101
-12.5075
2.00005
8.04656
-12.6418
-0.764863
-11.9341
2.74229
9.95664
-6.97284
0.107015
6.10096
-2.18136
6.21866
6.67797
6.14179
6.89112
14.78
7.95698
-9.44682
1.88851
-5.77603
-5.18352
7.41546
4.65919
-12.8619
-2.73768
10.4161
-3.01646
21.87
0.159359
-4.89729
-17.1321
13.621
-1.22242
9.4714
5.14017
-11.3039
19.7847
-3.69219
17.3346
-8.06112
-5.58129
20.8826
-12.0372
-12.5376
-22.2471
28.8718
-6.4653
-5.35152
-13.0245
-3.87106
-7.70356
-1.6362
14.4799
-13.192
4.26604
-8.42235
9.49275
16.2642
5.77747
6.68276
-15.9339
8.5194
-5.32302
-18.7927
8.18174
2.20379
-19.564
5.62028
-11.4776
0.507235
17.0607
-16.9386
6.80602
10.6399
-16.6699
14.6626
28.1585
-24.2036
-21.1433
17.1884
-1.69239
15.8652
13.9857
-3.78353
24.8948
-9.65886
-11.4524
11.7594
-24.5699
29.1078
-16.2973
-16.0056
3.56136
14.0176
-31.0696
15.3596
6.14147
8.90137
-39.6127
-18.7681
8.90402
-14.0098
24.2439
-0.0600634
12.0214
14.7484
-26.7097
-12.4582
10.4964
27.4538
-25.3354
6.78302
-24.7732
10.7033
-9.77759
50.7946
-32.7438
-2.55796
-15.4928
26.3097
34.8955
-10.4107
-21.3713
30.5169
-21.7086
12.563
-40.7297
-13.3854
50.3674
6.45918
-4.71836
-33.092
-2.9194
12.3238
7.49949
-41.5319
-20.0883
-21.2392
26.5834
14.7441
-16.4954
3.9312
-7.52405
23.8403
-29.8406
25.168
-19.1677
26.3487
9.81551
-5.11686
-28.705
29.1035
-1.03436
-35.3309
6.52458
-24.8088
-0.0533884
3.62299
-23.6581
-17.6461
21.2168
3.89777
30.6893
16.8762
-29.8093
3.76474
8.91996
-1.40218
-11.2825
-11.7478
11.1575
4.35505
5.5225
-12.6081
-4.66223
-8.49958
14.3414
1.98311
-7.82496
11.0363
-16.1615
-3.37439
-4.30919
-2.43791
17.9046
-3.64172
8.25248
-1.00653
5.38052
9.96744
6.38808
11.0845
-3.5789
14.0271
-7.74446
-2.45124
5.42667
4.76903
-6.79975
2.72239
-3.6671
2.12536
-1.5021
-7.42302
0.775755
-1.10163
-0.640471
4.27875
-2.86253
4.57083
-1.45618
-3.75512
-2.32613
1.57636
5.02853
3.20479
-0.960084
-5.79432
2.71492
8.50607
-2.6769
-0.395029
0.497275
3.46874
-5.46811
3.95208
-2.96608
0.915833
-1.90183
0.191986
1.76027
1.99983
3.26111
-4.22002
-2.87578
1.38781
1.67996
-2.58075
1.62143
2.97116
2.30064
-1.5088
-4.82151
2.64445
3.93732
-1.60503
6.7322
-1.37283
-9.13399
-9.89071
23.0163
-3.99158
-14.5753
-17.262
22.7033
5.60108
7.54683
-0.200219
-12.9477
-0.284915
-8.68932
6.17127
-8.51515
-12.2191
1.82883
24.0934
-13.7032
-0.904388
11.7016
-6.14073
15.7575
-9.90173
8.10451
-14.4455
7.90356
-15.9684
7.16049
-5.96962
-6.97345
14.7719
-8.77985
10.7138
7.50692
5.40722
2.84341
-4.06472
-5.73245
7.16186
-16.1162
0.174523
7.69533
-12.0764
5.66575
-3.68218
-2.09904
0.115472
-1.24817
7.91406
-1.00014
-0.893376
2.23554
-5.60703
4.26486
1.11305
-4.33719
2.33077
7.06142
-7.85547
-2.88813
8.04879
3.76093
-2.2638
-4.56086
3.06372
2.32995
2.54403
-0.790926
-1.06655
-3.74955
-3.45541
-1.6727
-5.96349
0.244276
12.7821
8.71778
-4.62894
-16.8709
-2.17903
6.71938
8.24175
3.67439
2.86436
9.50724
-1.74162
-4.09124
2.85687
6.36732
-13.8531
-14.9996
3.8509
20.6559
-2.13192
-0.406087
-12.4616
5.09935
-8.92222
6.67974
9.93022
2.69576
-6.25866
4.20712
12.4425
11.6631
-11.2719
-2.52309
19.7211
-3.47681
16.2985
13.2124
0.144404
-29.6554
-0.17578
22.7989
-6.32465
-35.659
9.17482
13.4361
13.0481
2.40969
-12.7615
-25.3072
37.0644
-10.4484
-24.2063
24.7381
21.5012
37.4302
-34.6662
2.18232
24.6875
10.5604
-10.2235
14.0742
-4.02652
8.24345
-18.3225
-24.5964
18.6872
8.09156
12.0287
-13.8262
15.5314
-20.0494
11.8897
37.5359
10.4435
9.83259
-4.74471
17.7445
6.13515
-15.1105
7.7454
26.0523
-8.1493
5.06749
-11.21
9.68243
19.2721
-3.27453
1.89712
2.65037
29.3176
2.87119
7.26284
-25.085
14.9509
10.3251
23.8387
-31.2925
-1.23007
20.1564
-11.6635
29.1327
-20.0377
33.2153
-15.5598
6.18322
44.6641
3.54557
-20.0652
-28.1445
20.2124
18.2902
-18.3462
23.1549
28.5096
-22.5318
43.2288
0.138496
-1.99071
31.0563
15.5985
-43.1561
14.1006
27.0648
-17.3299
15.9932
-41.8194
32.6371
-10.8013
-1.99766
13.2351
17.2721
18.455
22.7761
10.827
-2.69609
24.5062
10.2317
19.0502
-17.3785
28.3432
3.13588
17.45
-1.56466
13.3066
0.166608
15.3437
-3.82484
-11.6855
-4.74125
19.3498
-14.4419
-3.32792
19.8955
-21.3089
12.067
0.874114
-16.2691
5.68569
12.2172
-2.55912
20.0335
5.00196
-4.28595
13.0983
3.25463
17.6429
-2.03328
11.6413
-14.592
-16.1379
-12.7873
9.68859
19.2366
2.71279
-18.0098
-0.840863
15.0007
3.41846
-0.806957
12.3892
13.6833
0.782905
5.56734
14.9087
-21.2772
-1.14338
3.26475
0.468863
12.6382
2.65865
10.2177
12.5723
5.85348
9.36538
2.58958
-6.51673
9.64424
15.4209
-4.88025
7.82842
-8.27693
5.32875
-0.100519
-3.83469
-0.945037
-9.41522
8.35973
-7.23162
8.28711
-2.94065
-11.712
5.23738
-5.91257
9.916
4.35631
-4.72656
-1.28653
-5.91945
2.07013
-7.5253
11.3746
4.56126
-0.564708
-2.32612
8.95751
-6.73695
12.2392
-12.2485
5.12516
-1.15354
-9.30826
-6.77497
-8.96211
1.2949
6.52911
-0.51255
-0.907099
-5.10946
16.2579
-17.2541
-5.82897
4.21718
-0.559097
-5.78242
7.89594
-6.13384
-7.16793
5.40582
3.63038
1.53609
2.72946
-8.20553
-10.024
6.23881
11.9907
1.7464
4.20729
-12.0875
7.12444
-13.5836
-8.87746
5.90232
-6.36122
9.33637
5.31934
-7.07236
-7.26667
2.73591
1.83898
2.69178
8.41969
-11.4791
6.82977
4.44447
-2.85454
4.456
5.10967
1.95111
5.20721
-8.57656
9.5844
3.44816
-0.501707
-5.1383
-3.10705
16.3595
-8.1142
-26.5181
1.08303
13.9837
11.4514
-1.63826
-26.3485
1.46869
-16.0136
-2.58938
13.4647
8.07525
-0.935881
-23.153
-20.5549
9.96503
11.6729
0.174853
-22.368
-5.36202
12.22
-17.916
9.96463
-19.2166
1.47537
17.3768
2.04768
0.494462
-19.9189
7.31325
10.9486
-0.885069
-6.22249
-4.58728
5.49754
5.31223
-12.7596
-7.74237
14.2795
-12.3913
12.6227
7.08183
1.57802
-11.9216
-12.6501
10.8391
1.76042
-13.9161
-4.64889
17.7137
-0.442144
-3.42554
-16.9404
15.7787
-22.7911
2.99599
16.3696
-1.79038
-24.17
3.16926
-19.3328
0.602028
-15.593
13.9401
2.96262
-20.535
0.435723
-21.6431
-13.5792
-19.1604
6.35122
14.4167
-1.60751
-7.84125
5.27558
-16.5947
-1.52584
7.79678
4.65819
-10.9291
14.5599
5.73867
-21.8244
1.04677
11.3798
2.13333
7.25081
1.59274
19.5061
11.2292
-17.0725
-13.6628
14.271
7.29538
-2.06026
-17.6611
12.3702
19.5619
-4.60479
-1.82709
9.70636
-12.8894
13.0223
3.03529
7.9329
-5.20089
2.54356
18.2753
4.07427
-16.6022
5.26836
-10.6762
4.17409
18.8723
-3.90116
14.08
6.19307
11.8878
17.2314
-10.8439
30.1419
5.11222
10.0348
0.646546
-15.7936
10.2429
-11.6799
6.54925
-4.69647
1.14394
13.7954
-2.81709
8.15542
3.47322
-0.340054
-14.8131
-8.65593
-3.3707
13.1706
8.40169
-4.05988
2.64545
-6.98726
5.62029
7.98643
-4.31908
-9.28764
11.4313
2.7464
-8.55743
0.736089
12.0538
-4.80346
13.1524
-4.01462
-7.56501
2.38229
2.59256
6.02167
-10.4418
9.66369
-6.63682
8.24878
-1.04943
9.09706
3.51143
-8.05839
-4.55009
5.38728
2.50405
1.20573
-4.78273
3.28861
6.8814
-1.05099
-0.220306
3.85134
8.98109
-10.3284
-2.62289
11.9232
-6.0117
-3.83784
10.9772
-4.17957
-2.95982
3.38613
-6.79941
-0.424559
3.93453
-3.62536
-1.36016
-7.79127
9.10291
4.61399
1.50632
4.85692
-8.10395
4.92668
-8.34318
-6.93461
-4.6581
4.64758
6.94513
-8.94817
1.0341
0.979454
-2.10027
-3.09446
0.53663
6.48421
-8.1911
-0.393382
5.34106
-8.25081
9.39396
-6.35438
16.343
-4.61185
-7.43078
7.02762
-8.5288
2.53528
-5.10513
5.77837
-7.78996
-0.237941
-0.163204
-3.83769
-9.51825
-8.76263
-0.0147703
0.248607
13.3337
-0.448604
-11.2222
-1.66291
16.3574
15.6737
-19.7314
-12.2997
3.96625
10.8605
1.5306
12.0288
5.27117
14.2976
3.01643
-1.64039
12.9858
12.1724
23.8697
-12.1317
-3.56349
-8.17447
0.495314
-1.80388
25.1783
-15.0069
-0.603886
16.1061
-15.1098
22.5266
-14.5931
-11.497
-1.02104
21.7438
23.0595
-16.9318
-6.51849
0.390756
0.604494
21.434
10.7739
-13.3689
-14.3368
15.4631
-1.67273
-1.02504
13.4069
-6.44565
-14.6659
15.0425
12.5473
-0.466337
3.28183
-15.3628
1.42451
14.0898
-2.96698
20.6794
16.5683
-22.6527
-14.5951
-2.41099
9.78373
13.3067
5.21193
8.94543
11.2377
2.39325
-14.0973
-2.08093
14.7431
11.5704
12.3032
3.16084
-22.5317
-18.3751
7.0098
10.5605
0.804828
-12.2012
-0.551559
-5.62239
1.40253
16.672
-6.50416
14.6286
-0.161776
-11.306
9.55686
10.2836
2.9358
-12.7437
-18.0396
4.9036
20.1458
-12.3199
-6.27129
15.863
-9.54585
-2.61363
2.01807
-1.2662
1.86177
1.86251
-3.96468
-0.511467
3.59018
-2.68776
0.960093
1.05358
4.55467
-3.51956
0.798668
1.45469
-3.40075
-4.08348
2.6012
0.801878
-2.60441
2.06886
5.16603
-4.6337
-2.64092
5.76337
-0.414505
-1.45815
-2.4568
4.32945
4.20417
-1.75367
-2.865
2.63692
-0.0506732
1.61791
2.07923
-3.32497
-1.44202
2.07523
0.607296
-5.68594
-4.25161
-10.2755
14.6259
-15.4905
11.1401
7.7813
-0.13501
-17.9218
0.903332
-3.15492
10.0329
-4.50676
20.036
-24.7229
-1.13965
5.3284
20.5342
-13.702
-1.50209
-9.51888
1.60788
-5.38281
-11.7156
-3.16463
-15.6565
14.3144
-18.4505
14.1462
-12.0518
-20.1006
18.1351
-11.2143
-8.4229
20.3086
-9.91411
-4.1345
-8.35331
-0.713192
-2.14779
2.97768
-17.0524
5.7214
-18.9883
6.13862
8.15295
-14.2916
12.8648
-12.0723
5.34612
2.64528
-3.55445
9.06212
-1.36762
16.8777
2.98745
-17.279
-11.3325
2.24763
2.10719
-18.6289
1.85891
14.6628
-17.807
4.01961
15.8946
-21.6938
20.3554
1.84329
-0.504867
-2.16827
1.26689
-20.7925
-2.39357
4.12013
-21.1325
0.931943
-15.1965
17.8484
-1.89627
2.03503
-11.4712
0.889915
-20.0652
-15.1703
13.4747
14.244
-15.5223
0.916954
-0.893508
-18.9721
-14.0549
1.12211
7.23319
1.48489
-9.84019
2.40631
0.2056
-13.5093
10.8974
16.7006
9.36609
-18.9713
-7.09542
-9.48067
14.6986
11.4827
-6.87111
8.91824
-2.69628
0.649152
-9.09249
2.50217
-0.280786
15.1469
2.72972
-15.4703
-6.495
12.5494
0.744854
-4.51013
-9.90339
10.3363
-2.8662
2.43327
2.42042
-12.1182
-3.2547
8.41263
4.20816
1.50081
-18.0517
-7.235
8.20374
-9.60272
1.2146
-4.18007
12.5682
-7.67004
-24.6617
22.729
2.62167
21.401
-14.0108
-10.0119
-12.9382
2.67802
4.9459
5.31426
-13.2632
-15.5854
15.9105
-22.1985
1.26518
-7.30255
10.9117
16.2124
-19.8215
-3.92287
-2.16507
-6.70877
-9.31193
18.6424
-8.62342
-11.1217
13.0363
-7.73508
1.78968
1.44964
0.150159
-12.2295
2.55745
-8.5929
-11.3717
-7.22912
6.07624
-7.40193
8.55481
-10.586
6.2822
-2.92535
0.186974
-10.6078
11.9647
-1.54389
-9.39547
-1.00352
-5.95951
-3.54476
15.5805
-6.07139
6.39408
0.159814
-15.6819
9.45067
-21.4279
8.34004
13.2477
-0.875379
6.71612
-15.2362
7.15485
-18.638
3.65608
-12.6218
-6.52133
-11.2505
-0.304318
4.86706
-10.1773
14.9726
16.8302
-16.1967
6.34856
42.7032
-25.5776
-1.77948
-15.3462
1.02977
19.8335
21.84
-30.4398
-2.248
20.7075
11.9803
-17.7719
-38.2455
-23.0469
11.6463
12.4303
-15.4899
-9.33646
-24.3533
12.4516
9.65365
-11.2618
7.83715
-20.9286
0.231381
-29.2651
7.69213
32.8488
9.3542
-13.1834
15.4755
-29.314
26.3072
15.4584
-5.42332
-16.0535
14.3928
9.08461
-23.2461
23.0694
-6.0231
12.8302
-13.9272
-2.09626
1.74304
16.9415
-13.2802
1.75116
13.0941
-6.25307
2.88447
-14.3933
17.7619
15.3887
-17.4726
-1.78933
4.97673
-6.71581
17.1278
-11.4441
-0.215526
-9.97876
21.6383
-1.67925
-16.0179
-2.31668
21.6085
-5.01357
0.768095
-13.2271
-10.1338
18.5411
-8.62282
2.74966
-14.5627
-18.6696
16.4057
2.86998
3.66928
14.7242
-21.2634
7.43972
24.0114
-28.5812
12.7659
-9.11336
9.7194
16.3006
3.78837
-1.54795
21.4237
8.09753
6.41851
-25.7535
11.3253
-15.7783
-5.81999
9.24246
7.98372
1.03938
18.4935
-8.20763
10.2656
9.31498
-13.1621
-6.35334
17.6583
8.2897
4.38384
11.6533
6.69832
-10.0619
-1.07327
9.44314
1.93493
2.23349
-15.2295
11.0611
15.3254
-6.65317
6.90901
-15.5812
-4.50286
-0.980122
20.8084
-12.7993
3.49295
-2.10302
11.4094
4.11263
-14.977
-4.40842
14.9529
-15.0473
-9.94932
-3.82123
12.7904
-16.6132
0.010695
21.3919
-0.926948
-9.99814
-10.4668
2.15222
2.19416
17.0455
17.7233
-9.24735
-9.4029
4.481
15.3945
12.9456
4.01318
-12.8462
-0.174635
-0.456706
-12.7223
17.1922
-4.19827
-12.2419
15.9835
19.4172
-11.7455
-17.6699
17.203
13.9099
-13.2501
-13.7103
13.7648
9.72115
-19.2179
-4.26803
-7.09333
11.8204
9.03771
6.13359
-3.50577
-15.2269
3.94697
12.0005
-0.720585
-16.8758
-11.6307
13.2797
2.14763
-14.1556
18.1416
-4.34215
-11.4671
17.9568
3.53165
12.2357
13.9396
-12.8869
-5.39488
19.3664
-9.73445
4.30764
4.30393
20.3912
-5.32875
22.2652
-14.4296
-8.98645
-2.05015
-3.6357
14.6723
-13.7423
13.2923
-8.53645
8.71202
-6.22778
-2.48424
2.93508
-0.72769
12.3314
-14.5388
0.00992245
11.6372
8.08641
-4.0702
-6.06636
1.41637
5.84041
-2.22936
-5.02742
8.01218
-6.59582
1.7844
1.98857
-11.4289
8.7126
-6.05122
8.04972
-7.47902
-15.6635
17.0913
-5.69462
-16.4401
-13.6537
14.4302
-13.7263
-8.40846
-4.84666
-2.85275
-5.95426
-12.7325
-6.1952
1.61901
10.6483
1.33556
-13.6029
-16.2455
14.197
3.66755
0.489304
-0.600803
-16.134
-1.39085
-0.126363
15.7142
-1.29575
10.5532
5.4662
-20.6428
16.8194
-1.64285
12.5882
-11.533
4.41107
15.2284
-2.70021
-15.9935
3.46526
15.9418
-0.713332
-16.4311
-1.84348
18.1482
-0.686027
11.9784
5.15872
-1.37813
-24.4233
-8.58877
2.21445
17.7031
-1.25082
0.367153
1.15331
15.8637
14.7644
-18.8427
-1.04143
15.0925
15.6532
-16.3434
-18.2953
-16.4788
24.207
10.5671
-5.13525
-26.9881
13.8281
8.53417
-2.54933
-22.4637
5.5306
30.3097
-11.6332
-25.868
-9.32689
15.4612
19.7337
17.8718
-30.1369
4.81121
7.45387
-5.04881
28.4512
-26.9005
-4.4732
5.50569
-22.5767
0.973996
0.507751
-18.8108
-4.27364
31.3828
-25.6671
-5.20802
21.6441
14.5499
-11.6523
28.2477
23.337
-33.0209
-1.96841
4.85414
-20.17
-3.49499
-21.7774
0.96452
4.37274
-7.57118
-4.81713
8.01557
-3.07806
2.37293
5.07787
-1.65365
-0.0182215
-5.8993
8.26385
-0.18389
-9.73361
8.56168
-7.69263
-9.99051
9.12146
-3.19809
5.3493
6.41047
1.9877
1.56388
-9.4404
-5.49836
6.32621
0.56696
-20.1004
13.2072
-5.34587
5.21828
6.4538
10.3548
-0.601015
3.88876
-13.6426
13.3756
6.63519
-19.4438
-12.0867
12.1063
16.3108
-16.3304
-1.50401
-10.5827
-11.3997
9.46173
12.2928
-12.9038
9.51886
3.25573
12.8919
-8.24243
1.98573
-4.22946
25.7975
18.1813
0.812341
-2.37791
-13.0471
14.6127
-1.62753
-11.449
13.8888
2.12903
1.20188
-16.3033
12.9724
-13.7142
14.2157
-13.5661
12.3901
5.79628
-11.0614
-7.78204
-5.65267
-3.90656
-14.8559
5.04824
7.12882
-3.8689
2.14646
-5.40638
-16.8473
10.41
-2.16777
-18.5484
-9.55923
-1.47092
-12.6859
-2.66689
-13.66
1.27257
-14.5017
-10.9535
13.1714
-13.6493
5.36811
-4.89016
-6.9416
7.21917
12.8938
8.48678
-2.5166
-19.6195
1.54518
9.4457
4.1621
-8.23968
19.465
-2.80016
-7.6895
9.23468
-11.5857
1.5561
12.0182
-1.98864
-5.40712
-13.8681
-17.2704
9.34666
9.66291
-13.7141
-13.9366
17.9878
-0.332383
9.9953
-0.502738
10.1651
1.49343
-11.1558
2.08068
-16.2975
8.90194
8.76519
-7.50208
8.56956
-0.692518
10.926
-8.74006
14.5009
-13.1127
0.271773
12.6457
-13.3243
0.406831
3.93721
-6.37813
16.9418
-0.649338
-12.211
12.0864
0.773979
7.92022
-3.40929
-0.0365426
15.7853
-11.8283
-0.01976
-0.249489
16.5394
-0.504668
0.550175
7.64182
12.3871
-4.31156
-17.2022
16.0058
-13.1728
14.3692
-10.5323
-2.80338
-3.86661
4.58127
-1.6755
13.1001
-24.1861
1.78437
9.22897
-20.5316
-14.1868
-10.3758
16.4028
-1.44573
16.7955
-13.3614
-6.23746
10.8414
4.27859
-17.7624
9.17106
28.3814
-7.69177
-29.8032
9.11359
24.8245
-14.2055
17.3281
4.14402
-6.53375
-14.9384
11.6053
4.72347
0.999351
1.71196
-29.9353
-12.2543
12.6202
11.2394
-6.31156
-1.79874
14.4584
-19.2802
5.82048
12.2623
10.9717
-11.6871
-11.5469
-5.9082
14.3685
3.802
-21.2677
4.01937
14.36
2.88831
-9.88204
-0.413961
18.4556
-12.5091
1.99077
-7.93726
23.5321
-7.083
2.00647
11.391
0.259316
-23.3375
8.31553
-2.83268
13.479
4.90887
11.2308
-22.3347
11.3632
6.76086
-8.03911
-17.5453
-16.6097
20.9526
13.2024
1.54841
-10.7782
-8.30039
0.0526163
35.1647
-22.2474
-12.9699
32.4995
-11.9419
-20.505
5.21304
15.7346
14.2171
18.1288
19.5837
-21.5096
-6.39415
5.65636
11.1961
13.0181
-8.47961
-11.0185
2.27228
12.7346
-3.98837
-11.5197
-1.87651
2.37764
16.6764
-4.69305
-12.89
0.906651
11.3776
-6.22096
-15.7513
17.2457
6.10245
-7.59681
6.7641
-20.6405
-1.87493
-1.9603
15.4287
-4.97266
21.1412