/*--------------------------------*- C++ -*----------------------------------*\
  =========                 |
  \\      /  F ield         | OpenFOAM: The Open Source CFD Toolbox
   \\    /   O peration     | Website:  https://openfoam.org
    \\  /    A nd           | Version:  10
     \\/     M anipulation  |
\*---------------------------------------------------------------------------*/
FoamFile
{
    format      ascii;
    class       volVectorField;
    location    "3";
    object      U;
}
// * * * * * * * * * * * * * * * * * * * * * * * * * * * * * * * * * * * * * //

dimensions      [0 1 -1 0 0 0 0];

internalField   nonuniform List<vector> 
75457
(
(4.7989 -0.570949 -0.834808)
(4.85098 -1.52525 -1.21953)
(7.22687 -0.124224 -0.62841)
(9.52531 -0.406475 -1.06734)
(4.15192 0.828185 -0.0432954)
(4.4036 0.999968 -0.130101)
(5.23392 -0.831563 -0.71802)
(4.98718 0.308547 -1.11533)
(10.6922 -0.663554 -1.14916)
(10.5249 -0.427199 -0.942342)
(10.7829 -0.239478 -0.967567)
(4.88399 0.120317 0.231065)
(5.04026 -0.0568031 -0.174209)
(9.69084 -0.264174 -0.395166)
(11.0149 -0.58547 -0.353432)
(11.0979 -0.555469 -0.290179)
(11.1866 -0.573337 -0.435479)
(11.0558 -0.619848 -0.526237)
(11.1639 -0.591481 -0.318762)
(11.1373 -0.49799 -0.365224)
(11.0396 -0.561469 -0.470853)
(11.2062 -0.583025 -0.335803)
(11.1676 -0.638419 -0.352526)
(11.1883 -0.690469 -0.370835)
(11.2387 -0.627613 -0.342148)
(11.0382 -0.730839 -0.520535)
(10.943 -0.732522 -0.537822)
(10.3965 -0.83617 0.285924)
(10.298 -0.85036 0.387659)
(10.355 -0.807723 0.248885)
(10.367 -0.716086 0.206121)
(10.2519 -0.811914 0.30897)
(10.2426 -0.785967 0.304719)
(10.443 -0.647303 0.234009)
(10.4161 -0.621074 0.207133)
(10.5291 -0.627341 0.381038)
(10.491 -0.685389 0.275054)
(10.2432 -0.844423 0.383419)
(10.2671 -0.787024 0.347125)
(10.4088 -0.55893 0.207469)
(10.4263 -0.564264 0.23257)
(10.4028 -0.567965 0.221292)
(10.4922 -0.654379 0.366053)
(12.0975 0.625976 0.106753)
(11.9845 0.646527 -0.0548133)
(12.084 0.496561 0.184396)
(12.1011 0.476323 0.230307)
(12.0563 0.507641 0.0811938)
(11.3127 0.159534 0.0989924)
(11.51 0.209226 0.142677)
(11.5389 0.209148 0.124761)
(11.3747 0.169197 0.13632)
(11.1541 0.179431 0.0284954)
(11.4509 0.204326 0.125702)
(11.5416 0.209329 0.170216)
(11.5524 0.205192 0.147193)
(11.2584 0.203526 0.0803561)
(11.2774 0.202321 0.0677662)
(11.3017 0.158547 0.060359)
(11.1266 0.174666 0.0195342)
(11.2081 0.192945 0.0601032)
(11.3769 0.166125 0.098936)
(9.94732 0.0553482 -0.300293)
(9.95366 0.0655777 -0.325008)
(10.1386 0.0869367 -0.255115)
(9.93747 0.0605265 -0.2936)
(9.95878 0.0554093 -0.274931)
(9.90798 0.0344769 -0.270723)
(9.92617 0.0414693 -0.209798)
(9.81922 0.0276496 -0.232593)
(9.83453 0.00861746 -0.230247)
(9.78016 0.0017487 -0.242236)
(9.95878 0.0482277 -0.217868)
(10.1312 0.0887833 -0.255142)
(9.93711 0.0482782 -0.197109)
(10.111 0.0792667 -0.223922)
(10.0997 0.0712948 -0.212238)
(-0.736278 -0.405512 -0.0773583)
(-1.22943 -0.364003 -0.72074)
(0.712189 0.0834041 -1.16767)
(0.577161 0.294986 0.764328)
(-1.77046 -0.537901 0.140778)
(0.0408975 -0.904036 -0.435446)
(0.744574 -1.02128 -1.62397)
(-1.34258 -0.116752 0.633879)
(-1.18582 0.116456 -0.0519675)
(2.18798 -0.0668737 -1.07506)
(1.30717 -0.163355 -1.06393)
(1.19658 -0.349054 0.0260226)
(2.12827 -0.00380204 0.613127)
(-0.00191672 -0.864796 -0.0654581)
(0.206511 -0.686764 -1.20596)
(0.285757 -0.0420528 1.20095)
(-1.39113 -0.303963 0.653078)
(11.906 -0.323899 -0.0528872)
(12.1782 -0.33793 -0.0941048)
(12.1757 -0.341322 -0.0935485)
(12.209 -0.335619 -0.0891666)
(11.7362 -0.326404 -0.0230295)
(11.9289 -0.334223 -0.0618811)
(11.9766 -0.324963 -0.0406434)
(11.8532 -0.320091 -0.0417779)
(10.0173 -0.00998736 -0.0197163)
(10.0275 -0.0092965 -0.0166096)
(10.0208 -0.0149778 -0.0220968)
(10.0211 -0.0195209 -0.0155217)
(10.0121 -0.0175978 -0.00668979)
(10.0236 -0.0175109 -0.0058534)
(9.85519 0.000661211 -0.0203963)
(9.93362 -0.0144069 -0.0149813)
(9.9451 -0.0182306 -0.0109862)
(9.90204 -0.0188799 -0.00159891)
(9.87103 -0.0258931 -0.0229848)
(10.7611 0.105027 0.0663112)
(10.7974 0.12837 0.185572)
(10.3952 0.0928623 0.11201)
(10.3854 0.0267829 0.0372967)
(10.777 0.0794533 0.202528)
(10.6484 0.142108 0.115421)
(10.5492 0.193255 -0.0212067)
(10.8643 0.0990461 0.265142)
(10.8562 0.122903 0.274231)
(10.7523 0.121995 0.268483)
(10.5547 0.145403 0.126044)
(10.4561 0.119582 0.0887133)
(10.5013 0.117897 0.140554)
(10.5547 0.158546 0.0555515)
(10.5011 0.0887149 0.149479)
(10.5407 0.0527198 0.0814023)
(10.6399 0.111557 0.227077)
(10.7351 0.109797 0.243904)
(11.2746 0.00451094 0.368155)
(11.3455 0.0720449 0.321261)
(11.3451 0.0497999 0.349906)
(11.2763 0.0299971 0.316247)
(11.2687 0.0173826 0.308229)
(11.2667 0.0741023 0.325695)
(11.1966 0.0351556 0.305236)
(11.2039 0.0254461 0.349179)
(11.1499 -0.00771104 0.322657)
(11.8527 0.0324279 0.190745)
(11.8582 0.0206763 0.209273)
(11.76 0.0151338 0.240177)
(11.8639 0.0292841 0.162336)
(11.8922 0.019365 0.180898)
(11.6243 0.0261455 0.128022)
(11.7773 0.00619226 0.246746)
(11.8094 -0.00263234 0.213137)
(12.5007 -0.00282809 0.00312736)
(12.5897 0.00633994 0.0292462)
(12.3759 -0.0230648 -0.052749)
(12.4166 0.0356397 0.0146363)
(12.7559 -0.00402215 0.112282)
(12.7155 0.031389 0.146515)
(12.5685 0.00452674 0.0651158)
(12.4405 0.0307482 0.0152702)
(12.4192 0.0187294 0.0562163)
(12.3425 0.0178958 -0.00224139)
(12.6927 0.0236568 0.13735)
(12.4227 0.0326303 0.0223998)
(12.4346 -0.012808 -0.010957)
(12.6822 0.0170596 0.171155)
(12.3634 0.0219803 0.0531083)
(11.5205 1.0591 0.904068)
(11.2752 1.22286 0.893341)
(11.1872 1.28777 0.854171)
(11.3737 1.19706 0.806618)
(11.2411 1.09323 0.766506)
(11.7155 0.919385 0.872037)
(11.5523 0.733938 0.56465)
(11.4296 0.861033 0.692153)
(11.5587 1.25062 1.03361)
(11.4386 0.941018 0.670063)
(11.5419 1.05566 0.708116)
(11.8085 1.12015 0.912632)
(11.6321 0.911713 0.615205)
(12.5954 -0.0823463 -0.0679971)
(12.6989 -0.0523766 -0.0859279)
(12.6222 -0.0271396 -0.0390401)
(12.475 -0.0555106 -0.011637)
(12.5027 -0.0369269 0.0027352)
(12.3719 -0.0408483 -0.0298153)
(12.5698 -0.0831567 -0.0351965)
(12.5096 -0.092278 -0.0170102)
(12.3642 -0.0981864 -0.00344698)
(12.6895 -0.0561378 -0.0942945)
(12.488 -0.0563398 -0.0296661)
(12.5875 -0.0748729 -0.0562829)
(12.3937 -0.0504387 -0.0148679)
(12.3488 -0.0419224 0.00316255)
(10.6942 -0.0512741 -0.60484)
(10.2208 -0.176176 -0.740617)
(10.1147 0.000766192 -0.823002)
(9.52361 -0.102249 -0.65209)
(9.08258 -0.12013 -0.738067)
(9.35997 -0.0876296 -0.693583)
(11.7507 0.351164 -0.608972)
(11.6146 0.216845 -0.461838)
(11.6956 0.191856 -0.432409)
(11.7551 0.231355 -0.471586)
(11.8711 0.251551 -0.471264)
(11.5606 0.170982 -0.18989)
(11.3891 0.286049 -0.139285)
(11.4426 0.277105 -0.109198)
(11.5507 0.307568 -0.229743)
(11.7952 0.302861 -0.23631)
(11.6655 0.245595 -0.0569877)
(11.6294 -0.00540211 -0.143738)
(11.6444 -0.0407874 -0.0524642)
(11.6531 -0.0470846 -0.0454352)
(11.8167 -0.0760711 -0.10514)
(11.8293 -0.0103608 -0.198683)
(11.5005 -0.0385756 -0.0657205)
(11.5329 0.0497425 -0.125639)
(11.7601 -0.0129768 -0.227333)
(11.623 -0.0092262 -0.152811)
(11.5396 -0.0601039 -0.0296491)
(11.7992 -0.00292849 -0.226063)
(11.4744 0.0209384 -0.143315)
(11.4145 -0.0231081 -0.0199414)
(11.4273 -0.00695912 -0.0744075)
(11.7766 0.376962 -0.0306475)
(11.8422 0.389166 0.00513801)
(11.6903 0.369178 -0.0254669)
(11.9928 0.337817 -0.00748683)
(11.8728 0.334204 0.0304143)
(11.7818 0.397566 -0.031595)
(11.8621 0.399582 -0.00777645)
(11.8245 0.439669 -0.0514016)
(11.7236 0.423816 -0.0185303)
(12.0687 0.400511 -0.0790586)
(12.1037 0.372897 -0.0679547)
(11.8874 0.393297 -0.0181179)
(11.8673 0.415243 -0.0420509)
(11.9313 0.392044 -0.0048761)
(11.8105 -0.0342065 -0.547356)
(11.6819 -0.0245322 -0.629864)
(11.8026 -0.126406 -0.577928)
(11.7033 -0.0890977 -0.460215)
(11.7523 -0.0992253 -0.44568)
(11.8711 -0.13277 -0.609806)
(11.6975 -0.0140204 -0.462665)
(11.6086 0.0239008 -0.551408)
(11.6611 -0.0494163 -0.656815)
(11.4443 -0.0174249 -0.562843)
(11.6166 -0.0760948 -0.647599)
(11.5496 -0.0396295 -0.442694)
(11.6172 -0.0287697 -0.405903)
(11.5807 -0.0296506 -0.662039)
(11.4975 -0.000686451 -0.584148)
(11.5455 -0.0210195 -0.430597)
(11.5909 0.0213983 -0.560567)
(9.86305 -0.0936262 0.567257)
(9.53179 0.054422 0.422383)
(9.67849 0.0439191 0.377952)
(9.62152 0.0567137 0.41842)
(9.73915 -0.108514 0.443993)
(9.93439 -0.155501 0.430569)
(9.8954 -0.259191 0.656957)
(11.2172 -0.237058 0.589386)
(11.3001 -0.300154 0.567546)
(11.2275 -0.269157 0.571736)
(9.97437 -0.100727 0.539237)
(9.77988 -0.181607 0.529456)
(11.5509 0.0664206 -0.0151689)
(10.8889 0.0577475 0.0368614)
(11.2854 0.00847775 -0.0156062)
(11.005 0.012236 0.00713267)
(10.9664 0.0623556 0.0516761)
(11.1663 0.0117994 0.044743)
(11.0971 0.000120119 0.0276566)
(11.0654 0.06255 0.0378545)
(11.4794 0.0497233 0.0225179)
(11.4439 0.048012 0.019328)
(11.4934 0.0782636 -0.002991)
(11.4567 0.0474184 -0.00444839)
(11.4953 0.0673845 0.0144526)
(12.1324 0.0247246 0.122055)
(12.0833 0.00480983 0.137286)
(12.22 0.0360023 0.150278)
(12.2134 -0.00331392 0.174001)
(12.1811 -0.0161476 0.176438)
(12.1222 0.0244688 0.108005)
(12.1202 -0.00349241 0.126232)
(12.202 0.0154612 0.144742)
(12.1732 -0.00125576 0.153816)
(12.1714 0.0348631 0.113231)
(12.4354 0.0774426 0.158784)
(12.3817 0.0626011 0.145266)
(12.2129 0.032316 0.119084)
(12.3497 0.0604239 0.121004)
(12.349 0.0614695 0.118198)
(9.99813 0.0392269 0.0319596)
(9.93267 0.0261554 0.0373797)
(9.87888 -0.0147669 0.0208345)
(9.82512 -0.000339476 0.0138563)
(9.8872 0.0255919 -0.00679436)
(10.0128 0.0265726 0.00836589)
(10.0325 0.0391735 0.0217954)
(9.85361 0.0317605 0.0103641)
(9.93862 0.00664038 0.0065948)
(8.82301 -0.0620033 -0.724582)
(8.69801 -0.0233624 -0.713042)
(8.74971 -0.14726 -0.815566)
(8.79401 -0.165521 -0.778992)
(8.62919 -0.108866 -0.815374)
(8.51525 -0.0542213 -0.784043)
(8.49334 -0.120261 -0.888325)
(8.55711 -0.217871 -0.891732)
(8.59821 -0.0627196 -0.762695)
(8.63461 -0.15911 -0.859268)
(8.66923 -0.205668 -0.825817)
(8.82291 -0.15067 -0.740072)
(8.8066 -0.199796 -0.768262)
(7.05336 0.168101 0.68847)
(3.8585 -0.0374511 1.03233)
(4.17623 0.0973603 0.694472)
(7.37192 -0.00239397 0.63963)
(7.8948 -0.174161 0.679748)
(7.3503 -0.356315 0.763397)
(7.71635 0.108598 0.595812)
(2.25297 0.23134 0.657593)
(2.1992 0.445574 0.537409)
(3.90315 -0.100561 0.715687)
(3.66508 0.0194824 0.653955)
(11.7947 0.0816348 0.117508)
(11.8598 0.0978122 0.124759)
(11.8749 0.101931 0.117491)
(11.6689 0.11561 0.0538863)
(11.6081 0.113537 0.0409575)
(11.6443 0.0877456 0.0674698)
(11.6533 0.108723 0.0595354)
(11.6255 0.101172 0.0445782)
(11.546 0.102123 0.0464173)
(11.7964 0.0691182 0.110465)
(11.8376 0.0748787 0.100946)
(11.4954 0.0379804 0.0317311)
(11.4738 0.0421865 0.0584042)
(11.4523 0.0704959 0.00691482)
(11.6254 0.0722263 0.0633708)
(11.4442 0.0413236 0.0443619)
(11.4308 0.0328964 0.0243851)
(4.05404 -0.250926 1.17423)
(2.94097 -0.315124 0.905574)
(1.8354 -0.386687 0.746841)
(1.35557 -0.0283766 0.360543)
(0.892336 -0.0939084 0.60807)
(3.64227 -0.403262 1.08172)
(1.79824 0.512065 0.656946)
(1.95177 -0.192196 0.63737)
(4.00487 -0.430075 1.1497)
(0.807232 -0.00607786 0.0409333)
(0.58481 -0.156816 0.230094)
(10.7884 0.0911323 0.0200178)
(10.707 0.0974352 -0.00267963)
(10.5719 0.0635449 0.0203728)
(10.475 0.0187975 0.0555946)
(10.379 0.0749883 -0.0253731)
(10.6692 0.0250026 0.06364)
(10.6521 0.0297783 0.0341391)
(10.3765 0.0669076 0.0413103)
(10.4732 0.0616361 0.044322)
(10.2843 0.0169328 0.0244378)
(10.4508 0.0612465 0.0317478)
(10.5171 0.0732873 0.106625)
(10.4939 0.0749958 0.0912779)
(10.5437 0.0840789 0.11151)
(10.5098 0.0788178 0.0878469)
(10.3775 0.0633026 0.0592386)
(10.4185 0.0660449 0.0774819)
(10.3291 0.097327 0.033479)
(10.3712 0.0938829 0.0510823)
(10.4718 0.097052 0.0731158)
(10.3971 0.0999407 0.0498709)
(10.1978 0.0869549 0.00168707)
(10.2748 0.0867429 0.00933587)
(10.3239 0.0664345 0.0428856)
(10.3689 0.0855387 0.0513908)
(10.3026 0.0770029 0.0430302)
(9.68733 0.0783872 0.542721)
(9.44019 0.0874144 0.460672)
(9.92324 0.063056 0.309072)
(10.1176 -0.0382347 0.333636)
(9.3293 0.0191133 0.337432)
(11.398 -0.0470668 0.721998)
(11.5067 -0.0745693 0.72835)
(11.593 -0.0947424 0.7721)
(11.5661 -0.0800352 0.76423)
(11.8044 -0.159581 0.77885)
(11.7684 -0.17094 0.799773)
(11.6757 -0.104503 0.749946)
(7.93127 2.51416 -0.056815)
(7.49167 2.68209 -0.570259)
(8.86828 2.28186 -0.319785)
(8.71903 2.55672 -0.485692)
(7.97042 2.97137 -0.129742)
(7.44757 3.00999 -0.666508)
(8.07607 2.24943 -0.0317053)
(7.56843 2.35671 -0.658122)
(8.21031 3.01848 -1.31937)
(7.34068 3.07551 -1.38846)
(8.28294 2.13523 -0.131466)
(7.95562 2.14223 -0.729307)
(8.29449 2.68953 -1.23018)
(7.7548 2.65044 -1.06222)
(8.9452 2.19232 -0.325453)
(8.46016 2.44138 -1.15799)
(7.89458 2.40199 -0.998384)
(8.96445 2.23583 -0.526715)
(9.6278 2.06742 -0.360569)
(9.7831 1.90586 -0.433054)
(9.60397 1.95166 -0.657614)
(9.53262 2.04258 -0.751451)
(9.54296 1.7647 -0.648007)
(9.46637 2.07081 -0.742196)
(9.57618 1.90733 -0.230242)
(9.50628 2.08018 -0.284447)
(9.43506 2.19224 -0.620164)
(9.01493 2.01468 -0.565095)
(9.32507 1.6973 -0.479084)
(9.30007 1.87254 -0.277487)
(9.01636 2.21346 -0.237693)
(10.2259 3.17115 -0.993286)
(10.5704 2.73585 -0.918724)
(10.9797 2.07186 -0.382513)
(10.8925 1.97018 -0.385947)
(10.3642 2.45638 -0.896245)
(10.5877 2.44567 -0.813609)
(10.716 2.18029 -0.534596)
(10.6911 2.10832 -0.539345)
(10.4808 3.16548 -0.839115)
(10.8068 2.89266 -0.694255)
(9.98004 2.81055 -0.927778)
(10.0561 2.90392 -0.912503)
(10.7544 2.59803 -0.321086)
(10.6659 2.40014 -0.296323)
(10.9739 2.33017 -0.377025)
(10.4157 2.14773 -0.612305)
(10.1097 2.60924 -0.57409)
(10.1797 2.73726 -0.605473)
(10.4846 2.69422 -0.351772)
(10.4713 2.55997 -0.376584)
(10.4117 2.82766 -0.525344)
(10.3257 2.49431 -0.444414)
(12.6037 -0.175782 0.375826)
(12.6056 -0.292805 0.420681)
(12.6281 -0.297243 0.431099)
(12.6164 -0.275634 0.421756)
(12.6341 -0.281595 0.437862)
(12.7073 -0.168312 0.385856)
(12.6835 -0.214272 0.396391)
(12.7429 -0.204644 0.407862)
(12.6263 -0.281302 0.398616)
(12.6361 -0.179605 0.370593)
(12.6661 -0.276125 0.429146)
(12.6766 -0.240057 0.388443)
(12.7314 -0.219689 0.420706)
(12.6616 -0.250923 0.379231)
(12.715 -0.237362 0.427335)
(12.6594 -0.169883 0.394578)
(4.90963 -0.631278 -0.158807)
(-0.47017 -1.27582 -0.629705)
(2.20906 0.941852 0.0549914)
(1.72714 1.74825 -0.0280595)
(10.658 0.687332 -1.53185)
(10.8722 0.839546 -1.91442)
(4.87065 1.22033 -0.2944)
(5.59168 0.87694 -0.2327)
(11.1592 0.329245 -1.25413)
(11.3446 0.373616 -1.4619)
(-0.231307 -0.386399 0.475004)
(6.94006 -0.223994 -0.691022)
(4.6882 0.0312148 0.13679)
(5.58959 1.5659 -0.0652865)
(10.6902 0.721652 -1.29886)
(11.2971 0.622346 -1.13026)
(12.3718 0.0800001 0.283866)
(12.4107 0.119484 0.272072)
(12.3262 0.0750465 0.22496)
(12.2906 0.0760318 0.191352)
(12.2675 0.0935061 0.206895)
(12.2707 0.0822641 0.250754)
(12.3701 0.0916518 0.241614)
(12.4192 0.0976372 0.272925)
(12.355 0.121798 0.280753)
(12.3242 0.0692599 0.287791)
(12.2186 0.095069 0.198089)
(12.2048 0.0694416 0.153464)
(12.2445 0.0789851 0.210711)
(12.2651 0.0772057 0.247599)
(12.2177 0.0699679 0.144394)
(12.274 0.0766915 0.155878)
(12.3479 0.0733169 0.183375)
(12.3037 0.0884347 0.199779)
(9.73502 1.72929 -0.164372)
(9.42707 1.65686 0.579718)
(9.33637 2.02856 0.742595)
(9.70984 1.89455 0.0908916)
(9.60401 2.04401 -0.0368206)
(9.22301 2.49889 0.203684)
(8.70897 2.69136 0.166695)
(9.36221 1.69731 -0.16288)
(9.53909 2.05464 0.505341)
(9.01309 1.90581 0.548301)
(8.86294 2.1769 0.584307)
(8.80129 2.65289 0.290777)
(9.30202 2.38902 0.452987)
(9.72621 1.76241 0.288123)
(9.67068 1.59145 0.284027)
(9.62592 1.62778 -0.104977)
(10.5708 0.646874 -0.269441)
(10.6416 0.649261 -0.2206)
(10.6002 0.594534 -0.256978)
(10.6065 0.759606 -0.294982)
(10.7126 0.825528 -0.202628)
(10.5444 0.542539 -0.275381)
(10.4814 0.62573 -0.34378)
(10.5199 0.713731 -0.371937)
(10.5806 0.729991 -0.364408)
(10.5146 0.71992 -0.407631)
(10.5694 0.729173 -0.347838)
(10.643 0.733034 -0.389017)
(10.5905 0.7232 -0.431387)
(10.6936 0.750885 -0.33508)
(10.6344 0.721781 -0.326344)
(10.4855 0.591238 -0.310264)
(10.4527 0.620688 -0.368133)
(11.6507 -0.0535609 0.739531)
(11.6603 -0.0275029 0.713598)
(11.7695 0.119467 0.616858)
(11.7753 0.153909 0.629258)
(11.7656 0.162075 0.631269)
(11.7595 0.11673 0.609955)
(11.6668 -0.0188547 0.798771)
(11.6469 -0.0104121 0.824525)
(11.7718 0.281604 0.747607)
(11.7615 0.365101 0.888449)
(11.6296 -0.0154838 0.668516)
(11.7665 0.120683 0.614614)
(11.7808 0.28259 0.749423)
(11.7799 0.314756 0.827077)
(11.6308 0.00323145 0.633007)
(11.8133 0.278072 0.808342)
(11.7066 -7.91771e-05 0.759999)
(9.78801 -1.33728 0.419825)
(10.1668 -1.35616 0.483327)
(10.2141 -1.33077 0.542822)
(9.49135 -1.37381 0.320248)
(10.3822 -1.23945 0.520839)
(9.41649 -1.35104 0.300869)
(10.0687 -1.11897 0.372857)
(9.68865 -1.15756 0.254922)
(10.4081 -1.18203 0.55286)
(10.4623 -1.24092 0.551184)
(10.2849 -1.29037 0.561932)
(9.53242 -1.45291 0.25563)
(9.53009 -1.05883 0.152274)
(9.93287 -1.03303 0.246343)
(9.67499 -1.02552 0.0949253)
(10.2253 -1.11127 0.489604)
(9.22939 -1.21131 -0.0599359)
(9.25749 -1.15724 -0.0771662)
(11.0262 -0.79746 0.536483)
(11.1458 -0.692904 0.556662)
(11.0859 -0.65194 0.493866)
(11.0059 -0.644501 0.28198)
(10.9171 -0.812051 0.347268)
(11.033 -0.526534 0.408916)
(10.9839 -0.795125 0.519785)
(11.036 -0.677816 0.486464)
(10.9801 -0.645425 0.437716)
(10.989 -0.497627 0.384795)
(10.9289 -0.683034 0.279296)
(10.9065 -0.672678 0.391699)
(10.9065 -0.584196 0.305684)
(10.913 -0.834696 0.451591)
(11.3056 -0.910978 0.872007)
(11.3009 -0.886323 0.870243)
(11.423 -0.83035 1.02111)
(11.5982 -0.675334 1.00822)
(11.4962 -0.784258 1.05952)
(11.4686 -0.832101 1.04144)
(11.304 -0.944763 0.926833)
(11.3402 -0.864714 0.890791)
(11.3745 -0.809041 0.892327)
(11.4497 -0.882855 1.02867)
(11.4648 -0.852531 1.03949)
(11.357 -0.915374 0.956907)
(11.3681 -0.856933 0.917932)
(11.5161 -0.687892 0.910167)
(11.5316 -0.687054 0.917391)
(11.391 -0.874137 0.986906)
(11.5855 -0.696706 0.956058)
(11.5233 -0.801785 1.01519)
(10.6468 3.2791 -0.847313)
(11.0184 3.20007 -0.745299)
(11.0067 2.95859 -0.694675)
(10.4382 3.22719 -0.629453)
(10.7511 3.42062 -0.636465)
(11.362 2.90026 -0.402949)
(11.2033 2.53887 -0.370607)
(11.0487 3.3508 -0.0806046)
(11.2619 3.16715 -0.0434864)
(10.5934 3.28526 -0.240819)
(11.101 2.49021 -0.32115)
(11.1116 3.50851 -0.259638)
(11.5478 0.162721 1.12193)
(11.859 0.0877394 1.06183)
(11.3362 -0.0877178 1.02462)
(11.8075 0.0828438 1.03134)
(11.4101 0.173084 1.07129)
(11.6844 -0.0741565 1.04581)
(11.3202 -0.0526021 0.933871)
(11.374 -0.152709 0.884465)
(11.5676 -0.0897992 1.02942)
(11.9692 0.0219637 0.91437)
(12.0494 -0.0286441 0.864788)
(11.9429 -0.0604521 0.842309)
(11.867 -0.133928 0.804081)
(11.9803 -0.135562 0.880107)
(12.0289 -0.0422437 0.8489)
(11.9612 -0.127756 0.841826)
(11.3279 -0.234651 1.12319)
(11.2309 -0.130522 1.10656)
(11.2487 -0.189943 1.10291)
(11.1904 -0.121402 1.05627)
(10.989 -0.197786 1.32349)
(10.9348 -0.489637 1.44596)
(10.5846 -0.56585 1.41183)
(10.91 -0.152054 1.37784)
(10.9517 -0.167271 1.27122)
(11.1488 -0.112245 1.06715)
(11.2031 -0.176109 1.09148)
(11.2759 -0.409267 1.16915)
(10.6693 -0.625774 1.36506)
(11.1238 -0.329607 1.11315)
(11.0504 -0.517591 1.1565)
(11.0834 -0.510297 1.16995)
(12.2561 0.409446 0.543309)
(12.3112 0.417627 0.560686)
(12.3591 0.359736 0.511354)
(12.1931 0.479844 0.408495)
(12.0129 0.634473 0.53302)
(12.2249 0.257993 0.482484)
(12.1635 0.269173 0.477003)
(12.3751 0.497746 0.509001)
(12.2739 0.567076 0.57797)
(12.224 0.572986 0.429319)
(12.0855 0.647892 0.530184)
(12.2026 0.518062 0.584904)
(12.1516 0.482903 0.557711)
(12.0479 0.457127 0.583719)
(12.1303 0.391836 0.481092)
(12.2879 0.268718 0.484026)
(12.2569 0.32732 0.454314)
(12.1903 0.324744 0.474789)
(12.281 0.471732 0.462124)
(10.4797 -0.388926 -0.754888)
(10.458 -0.376611 -0.726072)
(10.4755 -0.345937 -0.569684)
(10.4702 -0.504101 -0.848508)
(10.5144 -0.411509 -0.753133)
(10.4283 -0.466479 -0.713418)
(10.5789 -0.555951 -0.827524)
(10.6191 -0.392611 -0.720256)
(10.4645 -0.454302 -0.636422)
(10.6062 -0.381967 -0.536152)
(10.4627 -0.500217 -0.751841)
(10.5769 -0.535268 -0.718261)
(10.5345 -0.503769 -0.601764)
(10.5562 -0.537244 -0.637955)
(10.0672 -0.663065 -0.452164)
(10.077 -0.619512 -0.448826)
(10.1867 -0.660485 -0.366198)
(10.1106 -0.743588 -0.400955)
(10.1305 -0.60675 -0.394246)
(10.19 -0.763216 -0.417989)
(10.2935 -0.619404 -0.351735)
(10.2622 -0.470867 -0.422581)
(10.2402 -0.511918 -0.438023)
(10.3892 -0.4679 -0.341408)
(10.3371 -0.483995 -0.343284)
(10.1645 -0.709833 -0.505179)
(10.3771 -0.518774 -0.376162)
(10.3146 -0.481355 -0.427646)
(10.3208 -0.514885 -0.449938)
(10.366 -0.448694 -0.335506)
(10.337 -0.449108 -0.335723)
(10.3506 -0.540912 -0.44096)
(11.5201 1.29464 -0.0553471)
(11.1083 1.40649 -0.45822)
(10.7792 1.55919 -0.707694)
(12.1013 0.63344 -0.263965)
(12.043 0.842999 -0.203784)
(11.4991 1.13814 -0.388237)
(11.7286 1.04996 -0.10072)
(12.2073 0.592124 -0.243533)
(12.0649 0.846998 -0.172483)
(11.0603 1.17145 -0.742531)
(11.5824 0.890597 -0.559199)
(7.15003 1.17972 -0.776754)
(7.14112 1.14537 -0.638367)
(7.27616 1.36967 -0.68287)
(7.21709 1.44836 -0.950309)
(6.90698 1.55013 -1.15675)
(6.65195 1.46298 -1.09172)
(6.52058 1.54993 -1.30652)
(6.20201 1.36724 -1.26577)
(7.27594 1.06753 -0.804621)
(7.36963 1.00138 -0.75008)
(7.17859 1.19904 -0.696173)
(6.41026 0.975697 -1.19889)
(6.4166 0.907412 -1.32995)
(6.78692 1.31568 -0.989474)
(6.57092 1.11901 -1.32409)
(6.49021 1.19793 -1.1233)
(6.19246 1.27275 -1.4445)
(7.36835 1.06861 -0.801992)
(7.00331 0.814386 -1.15617)
(7.25433 0.841666 -1.01671)
(6.91471 1.04259 -1.13292)
(12.762 -0.188315 0.405976)
(12.7828 -0.193065 0.387369)
(12.8038 -0.122524 0.397183)
(12.8141 -0.149264 0.383491)
(12.7888 -0.135824 0.405412)
(12.737 -0.19938 0.427476)
(12.7397 -0.192145 0.422141)
(12.8031 -0.117015 0.402352)
(12.785 -0.100482 0.410427)
(12.664 -0.120934 0.442503)
(12.6567 -0.139693 0.450232)
(12.6257 -0.115918 0.459833)
(12.7849 -0.127972 0.405256)
(12.6802 -0.109696 0.428268)
(12.6244 -0.0969788 0.434744)
(12.6881 -0.118581 0.429942)
(12.6456 -0.0852781 0.423222)
(11.4742 0.155983 1.17917)
(11.2864 0.0820576 1.25041)
(11.1315 -0.121911 1.44453)
(10.575 -0.0528344 1.62237)
(11.4715 0.201109 1.21153)
(11.3269 0.11489 1.31799)
(10.4421 0.685293 1.00848)
(10.4669 0.430344 1.31125)
(11.2711 0.00101935 1.37615)
(10.5535 0.135297 1.51184)
(10.6174 0.506739 1.41713)
(9.65085 0.387664 0.401536)
(9.61916 0.438355 0.298746)
(9.57027 0.468239 0.329986)
(8.09404 0.27776 0.159422)
(8.63362 0.467905 0.362164)
(7.05701 0.242683 0.0608813)
(6.41136 0.164455 0.0413093)
(7.02885 0.179001 0.355863)
(8.04232 0.651681 0.368172)
(8.65901 0.555661 0.286095)
(6.36127 0.205841 -0.0684235)
(7.0652 0.342939 -0.0232833)
(6.5127 0.331248 0.100093)
(10.7088 -0.334298 -0.313613)
(10.6494 -0.297279 -0.289178)
(10.7126 -0.30529 -0.225086)
(10.7568 -0.319435 -0.23349)
(10.7042 -0.356116 -0.323632)
(10.6583 -0.324488 -0.293755)
(10.6833 -0.351532 -0.35855)
(10.6398 -0.333717 -0.349659)
(10.6716 -0.281157 -0.209966)
(10.739 -0.316372 -0.241073)
(10.5864 -0.278974 -0.278986)
(10.6096 -0.280385 -0.272577)
(10.7555 -0.310349 -0.21067)
(10.6196 -0.319057 -0.31225)
(10.6953 -0.284485 -0.183025)
(10.6646 -0.269835 -0.205546)
(10.5706 -0.269535 -0.246278)
(10.5963 -0.265945 -0.227147)
(10.6342 -0.261327 -0.188934)
(10.6384 -0.272702 -0.178334)
(10.634 -0.278245 -0.206661)
(10.5954 -0.278962 -0.246803)
(11.2527 -0.87107 -0.819731)
(11.4428 -0.675002 -0.697121)
(11.1416 -0.704876 -0.98067)
(11.3909 -0.554754 -0.76422)
(11.3933 -0.648437 -0.633498)
(11.0641 -0.890933 -0.803289)
(11.0642 -0.64274 -1.04123)
(11.3269 -0.520229 -0.747407)
(11.1449 -0.563143 -0.898284)
(11.0039 -0.833844 -0.771199)
(11.1152 -0.698589 -0.618771)
(11.1904 -0.737345 -0.641329)
(10.9231 -0.754829 -1.08955)
(11.2759 -0.536209 -0.753555)
(11.103 -0.53805 -0.886971)
(10.8274 -0.762839 -1.13072)
(10.9424 -0.601929 -1.01509)
(11.1172 -0.601036 -0.67696)
(11.3148 -0.608646 -0.627999)
(11.2421 -0.579108 -0.676853)
(11.694 0.258201 0.179843)
(11.6931 0.253328 0.168881)
(11.7967 0.283537 0.197367)
(11.8096 0.31507 0.267396)
(11.6548 0.251343 0.172937)
(11.6648 0.257101 0.171647)
(11.7775 0.308083 0.277834)
(11.7563 0.302686 0.226896)
(11.7303 0.247733 0.248369)
(11.6698 0.250544 0.317123)
(11.7006 0.256863 0.28228)
(11.6396 0.244385 0.198686)
(11.6031 0.245961 0.200175)
(11.6401 0.256182 0.178109)
(11.7297 0.256215 0.284128)
(11.7056 0.246279 0.333429)
(11.6234 0.242051 0.279472)
(11.6057 0.258037 0.182394)
(11.7099 0.296837 0.238473)
(11.7185 0.297774 0.291679)
(11.637 0.281368 0.24836)
(11.6858 0.295278 0.27505)
(10.7601 0.354874 1.17937)
(10.8056 0.413971 1.27315)
(11.5558 0.204356 0.899744)
(11.5863 0.251855 0.891286)
(11.4164 0.169925 1.03726)
(11.3997 0.206773 1.12401)
(11.3989 0.191073 0.935585)
(11.3634 0.173572 1.0484)
(11.202 0.206031 1.01983)
(10.855 0.277626 1.08776)
(10.8412 0.303819 1.09428)
(10.9815 0.346254 1.06143)
(11.497 0.32615 0.993458)
(11.525 0.253534 0.802886)
(11.5059 0.210039 0.831716)
(11.0799 0.29467 1.01081)
(11.3869 0.30438 0.915298)
(11.7229 0.657949 0.554582)
(11.7338 0.761959 0.538322)
(11.9275 0.391274 0.628815)
(11.8805 0.479829 0.514488)
(11.9253 0.411219 0.574117)
(12.0411 0.415615 0.586213)
(12.0416 0.346059 0.556795)
(11.9275 0.53005 0.41521)
(11.8996 0.505189 0.423441)
(11.8636 0.650109 0.354626)
(11.9509 0.62665 0.361926)
(12.0284 0.429146 0.535208)
(12.0005 0.750977 0.356088)
(11.916 0.767057 0.350297)
(10.9398 0.790459 -0.428209)
(10.8873 0.726256 -0.277967)
(10.8336 0.678654 -0.27394)
(10.8776 0.728928 -0.456919)
(10.8129 0.723825 -0.460153)
(10.9311 0.590389 -0.318123)
(10.8733 0.530045 -0.287873)
(10.9653 0.649416 -0.332407)
(10.9206 0.586618 -0.332295)
(10.8503 0.538113 -0.300862)
(12.2687 -0.233594 0.737438)
(12.2444 -0.264832 0.744009)
(12.1577 -0.189403 0.778567)
(12.17 -0.207126 0.748344)
(12.259 -0.309202 0.799225)
(12.2751 -0.320161 0.817476)
(12.2088 -0.217491 0.755851)
(12.2131 -0.171677 0.752968)
(12.2234 -0.298178 0.812317)
(12.1598 -0.14484 0.772509)
(12.1778 -0.178773 0.807777)
(12.184 -0.150899 0.808479)
(12.1734 -0.125088 0.77347)
(12.2129 -0.241426 0.845994)
(12.1944 -0.123699 0.773298)
(12.2014 -0.144717 0.800239)
(12.2324 -0.242203 0.845111)
(9.35507 -0.773928 -0.263467)
(9.20438 -0.741797 -0.233354)
(8.85119 -0.501664 -0.231094)
(8.33764 -0.625184 -0.393023)
(8.35656 -0.651388 -0.48381)
(8.82989 -0.518214 -0.312725)
(9.03492 -0.82349 -0.744539)
(9.08573 -0.856323 -0.752501)
(8.9464 -0.842721 -0.765428)
(8.76912 -0.814295 -0.735379)
(8.86809 -0.538565 -0.200156)
(9.09868 -0.675898 -0.269562)
(9.48447 -0.852756 -0.377597)
(9.43022 -0.808719 -0.348765)
(8.74513 -0.777991 -0.639669)
(8.66124 -0.769883 -0.701471)
(8.25746 -0.657103 -0.56067)
(9.00844 -0.644217 -0.35139)
(9.41658 -0.892855 -0.404935)
(9.15247 -0.786873 -0.463556)
(11.7706 -0.0132252 0.514357)
(11.621 -0.0781151 0.506195)
(11.6127 -0.0176961 0.488118)
(11.7302 0.00771167 0.510223)
(11.6076 -0.119509 0.526623)
(11.3228 -0.0989831 0.527821)
(11.5529 -0.187609 0.51586)
(11.7952 -0.0369036 0.475027)
(11.7819 -0.0152843 0.500325)
(11.7306 -0.0764926 0.507669)
(11.3633 -0.212426 0.459932)
(11.2986 -0.127131 0.52512)
(11.7485 0.00753497 0.503487)
(11.509 -0.098082 0.506087)
(11.5198 -0.133895 0.488197)
(11.2671 -0.184101 0.487121)
(4.93282 -1.22902 0.332165)
(4.73097 -1.3531 0.172622)
(4.45821 -1.41529 0.301401)
(4.75328 -1.36823 0.3723)
(7.75944 -1.56981 0.122431)
(6.49189 -1.47034 0.107524)
(9.24211 -0.891474 0.73411)
(7.40941 -0.554889 0.94593)
(5.4474 -0.575587 1.14396)
(6.62334 -0.85764 0.841135)
(9.14031 -0.901759 0.538018)
(7.46566 -0.888509 0.774758)
(6.52374 -0.456611 0.904399)
(12.1942 0.157692 1.21201)
(12.1773 0.273829 1.24436)
(12.1776 0.135752 1.17867)
(12.1477 0.017209 1.1031)
(12.1951 0.00733569 1.0099)
(12.1999 0.0818606 1.08915)
(12.1449 0.328649 1.24216)
(12.0877 0.386709 1.02011)
(12.1149 0.189008 0.994327)
(12.118 0.0584228 1.06366)
(12.1977 0.0538909 0.940834)
(12.0829 0.4435 0.96351)
(11.7392 0.365218 -0.145917)
(11.6979 0.277449 -0.171692)
(11.7449 0.24377 -0.183771)
(11.8292 0.366486 -0.123327)
(11.772 0.31416 -0.12613)
(11.8081 0.290626 -0.143876)
(11.9545 0.345268 -0.150446)
(12.0384 0.350609 -0.164561)
(11.9472 0.263482 -0.163564)
(11.9081 0.253938 -0.164898)
(11.9631 0.553405 -0.244276)
(12.0419 0.546571 -0.244007)
(11.888 0.504314 -0.267299)
(11.9434 0.494621 -0.250025)
(11.802 0.497867 -0.272554)
(11.8435 0.421445 -0.19418)
(11.8616 0.338285 -0.132633)
(11.9023 0.50896 -0.238738)
(11.924 0.395348 -0.171603)
(11.5556 -0.386796 0.56477)
(11.5363 -0.332434 0.668212)
(11.5505 -0.334975 0.541184)
(11.5217 -0.289724 0.604752)
(11.551 -0.288059 0.615562)
(11.9764 -0.329827 0.6117)
(11.8779 -0.303755 0.662754)
(11.561 -0.32428 0.696461)
(11.7087 -0.382549 0.553258)
(12.2247 -0.256384 0.751044)
(12.228 -0.270637 0.704852)
(11.7206 -0.32242 0.762369)
(12.2094 -0.359507 0.612638)
(12.0301 -0.380449 0.635444)
(12.2181 -0.289952 0.65302)
(12.3112 -0.273426 0.741534)
(12.3156 -0.268403 0.678871)
(12.0787 -0.352592 0.713317)
(12.2833 -0.283197 0.639955)
(3.77211 0.928811 -1.24855)
(3.92492 0.842868 -1.27603)
(5.25338 1.02857 -1.54634)
(4.53855 0.835255 -1.45651)
(4.65265 1.01902 -1.39173)
(4.73005 1.03431 -1.31271)
(5.63454 1.09957 -1.71866)
(5.85527 1.13095 -1.71591)
(5.86343 1.11058 -1.59877)
(6.07793 1.2662 -1.51619)
(6.66454 1.44635 -1.44141)
(6.62088 1.36833 -1.48555)
(6.36116 1.40844 -1.40189)
(6.52007 1.30844 -1.50156)
(6.51203 1.49344 -1.26135)
(5.41 1.16241 -1.38843)
(10.9526 0.458657 -0.325667)
(10.8737 0.427532 -0.256772)
(10.9303 0.428945 -0.336287)
(11.0198 0.490608 -0.404338)
(10.9671 0.48195 -0.677065)
(10.8882 0.477251 -0.670601)
(10.8767 0.437298 -0.315479)
(10.9825 0.499495 -0.54599)
(10.928 0.506655 -0.667823)
(10.8802 0.478642 -0.676703)
(10.8518 0.356646 -0.384318)
(10.9455 0.413989 -0.493751)
(10.9226 0.500642 -0.499191)
(10.8084 0.369164 -0.389406)
(10.7633 0.372748 -0.396426)
(10.835 0.461486 -0.520008)
(10.0453 0.178411 -1.70703)
(9.21818 0.0475771 -1.89587)