/*--------------------------------*- C++ -*----------------------------------*\
  =========                 |
  \\      /  F ield         | OpenFOAM: The Open Source CFD Toolbox
   \\    /   O peration     | Website:  https://openfoam.org
    \\  /    A nd           | Version:  10
     \\/     M anipulation  |
\*---------------------------------------------------------------------------*/
FoamFile
{
    format      ascii;
    class       volScalarField;
    location    "20";
    object      C;
}
// * * * * * * * * * * * * * * * * * * * * * * * * * * * * * * * * * * * * * //

dimensions      [1 3 0 0 0 0 0];

internalField   nonuniform List<scalar> 
75457
(
0.499999
0.499999
0.5
0.5
0.499993
0.499993
0.499999
0.499999
0.5
0.5
0.5
0.499993
0.499993
0.499998
0.499984
0.499987
0.499994
0.49999
0.499988
0.499994
0.499991
0.499993
0.499986
0.499986
0.499993
0.499976
0.499975
0.496058
0.495237
0.496006
0.496602
0.495066
0.495138
0.497699
0.497679
0.498006
0.497729
0.494767
0.495312
0.497866
0.497999
0.497902
0.497992
0.499149
0.498729
0.499508
0.499507
0.499141
0.499986
0.499868
0.499859
0.499983
0.499979
0.49988
0.499929
0.499945
0.49995
0.49995
0.499989
0.499983
0.499972
0.499988
0.5
0.5
0.5
0.5
0.5
0.5
0.5
0.5
0.5
0.5
0.5
0.5
0.5
0.5
0.5
0.396639
0.406588
0.412098
0.401216
0.398668
0.400728
0.403187
0.404532
0.402016
0.421936
0.431789
0.412276
0.418088
0.393995
0.410214
0.40903
0.395529
0.5
0.5
0.5
0.5
0.5
0.5
0.5
0.5
0.5
0.5
0.5
0.5
0.5
0.5
0.5
0.5
0.5
0.5
0.5
0.5
0.5
0.5
0.5
0.5
0.5
0.5
0.5
0.5
0.5
0.5
0.5
0.5
0.5
0.5
0.5
0.5
0.5
0.5
0.5
0.5
0.5
0.5
0.5
0.5
0.5
0.5
0.5
0.5
0.5
0.5
0.5
0.5
0.5
0.5
0.5
0.5
0.5
0.5
0.5
0.5
0.5
0.5
0.5
0.5
0.5
0.5
0.5
0.5
0.5
0.5
0.5
0.5
0.5
0.5
0.5
0.5
0.5
0.5
0.5
0.5
0.5
0.5
0.5
0.5
0.5
0.5
0.5
0.5
0.5
0.5
0.5
0.5
0.5
0.5
0.5
0.5
0.499955
0.49994
0.499932
0.499884
0.499851
0.499869
0.5
0.5
0.5
0.5
0.5
0.5
0.5
0.5
0.5
0.5
0.5
0.5
0.5
0.5
0.5
0.5
0.5
0.5
0.5
0.5
0.5
0.5
0.5
0.5
0.5
0.5
0.5
0.5
0.5
0.5
0.5
0.5
0.5
0.5
0.5
0.5
0.5
0.5
0.5
0.499997
0.499995
0.499997
0.499998
0.499998
0.499996
0.499998
0.499997
0.499995
0.499997
0.499996
0.499998
0.499999
0.499995
0.499997
0.499999
0.499997
0.498001
0.498121
0.498106
0.49814
0.49864
0.498719
0.498772
0.499163
0.499158
0.49916
0.497982
0.498748
0.499725
0.499792
0.49935
0.499722
0.499791
0.499726
0.499721
0.499791
0.4992
0.499059
0.499721
0.499132
0.499721
0.5
0.5
0.5
0.5
0.5
0.5
0.5
0.5
0.5
0.5
0.5
0.5
0.5
0.5
0.5
0.486015
0.486183
0.483312
0.484495
0.485787
0.486423
0.486228
0.485786
0.486021
0.356701
0.355024
0.370737
0.367632
0.359838
0.352413
0.354423
0.368784
0.346811
0.356756
0.372458
0.357928
0.365802
0.399134
0.345326
0.392195
0.384804
0.339588
0.302781
0.339943
0.396984
0.37446
0.363561
0.37477
0.5
0.5
0.5
0.5
0.5
0.5
0.5
0.5
0.5
0.5
0.5
0.5
0.5
0.5
0.5
0.5
0.5
0.440346
0.444161
0.441093
0.462536
0.436261
0.431238
0.441735
0.429853
0.433908
0.45953
0.438558
0.49606
0.497566
0.497642
0.495182
0.497465
0.48977
0.489587
0.495066
0.497551
0.494934
0.497508
0.499476
0.499741
0.499371
0.499744
0.499742
0.499556
0.499444
0.499412
0.499383
0.499586
0.499597
0.499481
0.499747
0.499775
0.499694
0.413177
0.377358
0.40339
0.376069
0.378442
0.499984
0.499985
0.499957
0.49998
0.499903
0.499903
0.499977
0.5
0.5
0.5
0.5
0.5
0.5
0.5
0.5
0.5
0.5
0.5
0.5
0.5
0.5
0.5
0.5
0.5
0.5
0.5
0.5
0.5
0.5
0.5
0.5
0.5
0.5
0.5
0.5
0.5
0.5
0.5
0.5
0.5
0.5
0.5
0.5
0.5
0.5
0.5
0.5
0.5
0.5
0.5
0.5
0.5
0.5
0.5
0.5
0.5
0.5
0.5
0.5
0.5
0.5
0.499997
0.499996
0.499997
0.499996
0.5
0.499998
0.499999
0.499997
0.5
0.499997
0.499998
0.499999
0.499998
0.499999
0.5
0.499985
0.499887
0.499913
0.499915
0.499988
0.499986
0.499919
0.499918
0.499998
0.499998
0.499938
0.499991
0.499979
0.499954
0.499989
0.499998
0.5
0.5
0.5
0.5
0.5
0.5
0.5
0.5
0.5
0.5
0.5
0.5
0.5
0.5
0.5
0.5
0.5
0.5
0.5
0.5
0.5
0.5
0.5
0.5
0.5
0.5
0.5
0.5
0.5
0.5
0.5
0.5
0.5
0.5
0.5
0.5
0.5
0.5
0.5
0.5
0.5
0.5
0.5
0.5
0.5
0.5
0.5
0.5
0.5
0.5
0.5
0.5
0.5
0.5
0.5
0.5
0.5
0.5
0.5
0.5
0.5
0.5
0.5
0.5
0.5
0.5
0.5
0.5
0.494703
0.494901
0.495232
0.49469
0.493987
0.494598
0.491932
0.492061
0.49406
0.494775
0.495271
0.494708
0.491067
0.492004
0.492307
0.492301
0.492377
0.492469
0.498922
0.499351
0.499402
0.499694
0.499238
0.49967
0.498912
0.499307
0.499333
0.499666
0.4996
0.499285
0.499631
0.498889
0.497369
0.497568
0.497424
0.498167
0.497414
0.497361
0.496786
0.497522
0.497752
0.497011
0.497032
0.49682
0.497487
0.498244
0.498236
0.496871
0.49808
0.497247
0.5
0.5
0.5
0.5
0.5
0.5
0.5
0.5
0.5
0.5
0.5
0.5
0.496923
0.498291
0.496636
0.498205
0.496759
0.497414
0.496938
0.496987
0.49722
0.498677
0.498886
0.498791
0.498412
0.498369
0.498881
0.49843
0.499341
0.498834
0.499202
0.498888
0.498076
0.497824
0.496724
0.498119
0.498181
0.498879
0.499097
0.498956
0.496715
0.498858
0.49857
0.498516
0.5
0.5
0.5
0.5
0.5
0.5
0.5
0.5
0.5
0.5
0.5
0.5
0.5
0.5
0.5
0.5
0.5
0.5
0.5
0.499873
0.499869
0.499914
0.499812
0.499882
0.499837
0.499879
0.499937
0.499873
0.499958
0.49984
0.499907
0.499915
0.499916
0.496478
0.496699
0.497383
0.4962
0.497035
0.497271
0.498692
0.499347
0.499079
0.499703
0.499339
0.498319
0.499611
0.499624
0.49963
0.499698
0.499496
0.499622
0.499992
0.499986
0.499984
0.499997
0.499997
0.499988
0.499993
0.499997
0.499997
0.499987
0.49999
0.475134
0.47532
0.477183
0.476842
0.472673
0.47291
0.471236
0.470364
0.4772
0.478595
0.478113
0.477213
0.476773
0.475977
0.4758
0.475869
0.472545
0.48031
0.479979
0.480939
0.478099
0.49998
0.499982
0.499999
0.499995
0.499999
0.499982
0.499981
0.5
0.5
0.499999
0.499998
0.5
0.5
0.499999
0.5
0.5
0.5
0.49852
0.498254
0.498033
0.497269
0.498567
0.498427
0.496857
0.496935
0.498188
0.497285
0.497308
0.469778
0.469217
0.469151
0.452511
0.467594
0.444672
0.440712
0.456448
0.467269
0.467633
0.452343
0.453868
0.454874
0.499993
0.499993
0.499997
0.499997
0.499991
0.499992
0.499989
0.499989
0.499998
0.499997
0.499993
0.499993
0.499998
0.49999
0.499998
0.499997
0.499994
0.499995
0.499998
0.499998
0.499998
0.499994
0.499986
0.499994
0.499972
0.499994
0.499996
0.499969
0.499969
0.499994
0.499981
0.499968
0.499986
0.499987
0.499939
0.499993
0.499981
0.499922
0.499956
0.49999
0.499996
0.499994
0.499698
0.499292
0.498718
0.498811
0.499712
0.499377
0.498702
0.498483
0.499615
0.499619
0.499663
0.499701
0.499667
0.49937
0.49966
0.499569
0.499628
0.499362
0.498505
0.498686
0.498792
0.498569
0.496014
0.49624
0.498884
0.49866
0.498597
0.49823
0.498637
0.498597
0.497922
0.496239
0.495919
0.496521
0.498226
0.498363
0.498694
0.496553
0.497208
0.499418
0.499417
0.49959
0.499628
0.499665
0.499684
0.49976
0.499681
0.499682
0.499611
0.499632
0.499739
0.499558
0.499518
0.5
0.5
0.5
0.5
0.5
0.5
0.5
0.5
0.5
0.5
0.49989
0.499891
0.499923
0.499932
0.499736
0.499647
0.499921
0.499949
0.49971
0.499913
0.499855
0.499857
0.499925
0.499628
0.499925
0.499853
0.499591
0.499702
0.499702
0.499519
0.499476
0.499463
0.499502
0.49974
0.499739
0.499592
0.499494
0.499526
0.499575
0.499781
0.499725
0.499599
0.499379
0.49917
0.499542
0.499747
0.499583
0.5
0.5
0.5
0.5
0.5
0.5
0.5
0.5
0.5
0.5
0.5
0.5
0.5
0.5
0.5
0.5
0.460088
0.459139
0.460561
0.462337
0.478644
0.472015
0.484684
0.474224
0.468482
0.471684
0.484551
0.47394
0.469211
0.498206
0.498109
0.498364
0.498712
0.499025
0.498762
0.498118
0.498703
0.498948
0.498732
0.499283
0.498775
0.5
0.5
0.5
0.5
0.5
0.5
0.5
0.5
0.5
0.5
0.5
0.5
0.5
0.5
0.5
0.5
0.5
0.5
0.5
0.497155
0.496984
0.498079
0.498061
0.498058
0.498254
0.497932
0.497426
0.498213
0.499178
0.499186
0.497594
0.499189
0.498883
0.499007
0.499388
0.499472
0.498926
0.499324
0.455162
0.456897
0.46527
0.461212
0.45694
0.458528
0.460539
0.463574
0.466164
0.464153
0.469989
0.469672
0.469739
0.468999
0.469815
0.461901
0.5
0.5
0.5
0.5
0.5
0.5
0.5
0.5
0.5
0.5
0.5
0.5
0.5
0.5
0.5
0.5
0.483548
0.470379
0.486722
0.472651
0.48368
0.463408
0.495619
0.489031
0.496837
0.496856
0.495648
0.488587
0.471408
0.458452
0.483799
0.495552
0.495434
0.495571
0.488669
0.466732
0.5
0.5
0.5
0.5
0.5
0.5
0.5
0.5
0.5
0.5
0.5
0.5
0.5
0.5
0.5
0.5
0.5
0.5
0.5
0.5
0.5
0.5
0.5
0.5
0.5
0.5
0.5
0.5
0.5
0.5
0.5
0.5
0.5
0.5
0.5
0.5
0.5
0.5
0.5
0.5
0.5
0.5
0.5
0.5
0.5
0.499999
0.499999
0.499999
0.499999
0.5
0.5
0.499999
0.499999
0.499999
0.499999
0.5
0.499999
0.499999
0.5
0.5
0.5
0.5
0.5
0.5
0.499801
0.499125
0.499275
0.499819
0.499748
0.499239
0.499229
0.499614
0.499502
0.499394
0.499828
0.499838
0.499582
0.499636
0.499582
0.499659
0.499998
0.499995
0.499996
0.499994
0.499998
0.499998
0.499994
0.499996
0.499998
0.5
0.5
0.5
0.5
0.5
0.5
0.5
0.5
0.5
0.5
0.5
0.5
0.5
0.5
0.5
0.5
0.5
0.5
0.5
0.5
0.5
0.5
0.5
0.5
0.5
0.5
0.5
0.5
0.5
0.5
0.5
0.5
0.5
0.5
0.5
0.5
0.5
0.5
0.5
0.5
0.5
0.5
0.5
0.5
0.5
0.5
0.5
0.5
0.5
0.5
0.499999
0.5
0.5
0.499999
0.499998
0.499994
0.499996
0.499999
0.499999
0.499998
0.499999
0.499996
0.499996
0.499997
0.499993
0.499993
0.499997
0.499997
0.499996
0.49987
0.499916
0.499823
0.499869
0.499843
0.499683
0.499638
0.499844
0.499688
0.499644
0.499128
0.49919
0.499276
0.499469
0.499748
0.499397
0.420404
0.421762
0.419768
0.428056
0.403138
0.410264
0.42698
0.404218
0.405648
0.5
0.5
0.5
0.499997
0.5
0.5
0.5
0.5
0.499997
0.499998
0.499999
0.499997
0.499999
0.499999
0.499994
0.499997
0.499996
0.499999
0.5
0.499998
0.499994
0.499996
0.499997
0.5
0.499994
0.499997
0.499999
0.5
0.5
0.5
0.5
0.5
0.5
0.5
0.5
0.5
0.5
0.5
0.5
0.5
0.5
0.5
0.5
0.5
0.5
0.5
0.5
0.5
0.5
0.5
0.5
0.5
0.5
0.5
0.5
0.5
0.5
0.5
0.5
0.5
0.5
0.5
0.5
0.5
0.5
0.5
0.5
0.5
0.5
0.5
0.5
0.5
0.5
0.5
0.5
0.5
0.5
0.5
0.5
0.5
0.5
0.5
0.5
0.5
0.5
0.5
0.5
0.5
0.5
0.5
0.5
0.5
0.5
0.5
0.5
0.5
0.5
0.5
0.5
0.5
0.5
0.5
0.5
0.5
0.5
0.5
0.5
0.5
0.499988
0.499988
0.499987
0.499988
0.499981
0.499986
0.499988
0.499989
0.499989
0.499983
0.499987
0.49999
0.499993
0.49999
0.499993
0.499992
0.49999
0.499992
0.499994
0.5
0.5
0.5
0.5
0.498439
0.498255
0.499995
0.499987
0.499999
0.5
0.499999
0.5
0.5
0.498648
0.497294
0.499567
0.499998
0.499999
0.499998
0.499997
0.499842
0.499883
0.499741
0.499886
0.499826
0.499789
0.499775
0.499545
0.499873
0.49987
0.499762
0.49987
0.49962
0.499675
0.499554
0.499867
0.499842
0.499867
0.499693
0.402218
0.409178
0.419709
0.41617
0.407252
0.40119
0.42333
0.428392
0.426742
0.434387
0.428978
0.423035
0.420882
0.426801
0.416408
0.41517
0.5
0.5
0.5
0.5
0.5
0.5
0.5
0.5
0.5
0.5
0.5
0.5
0.5
0.5
0.5
0.5
0.5
0.5
0.5
0.5
0.5
0.5
0.5
0.5
0.5
0.5
0.5
0.5
0.5
0.5
0.5
0.5
0.5
0.5
0.5
0.5
0.5
0.5
0.5
0.5
0.5
0.5
0.5
0.5
0.5
0.5
0.5
0.5
0.5
0.5
0.5
0.5
0.5
0.5
0.5
0.5
0.5
0.5
0.5
0.5
0.5
0.5
0.5
0.5
0.5
0.5
0.5
0.5
0.5
0.5
0.5
0.5
0.5
0.5
0.5
0.5
0.5
0.5
0.5
0.5
0.5
0.5
0.5
0.5
0.5
0.5
0.5
0.5
0.5
0.5
0.5
0.5
0.5
0.5
0.5
0.5
0.5
0.5
0.5
0.5
0.5
0.5
0.5
0.5
0.5
0.5
0.5
0.5
0.5
0.5
0.5
0.5
0.5
0.5
0.5
0.5
0.5
0.5
0.5
0.5
0.5
0.5
0.5
0.5
0.5
0.5
0.5
0.5
0.5
0.5
0.5
0.5
0.5
0.5
0.5
0.5
0.5
0.5
0.5
0.5
0.5
0.5
0.5
0.5
0.5
0.5
0.5
0.5
0.5
0.5
0.5
0.5
0.5
0.5
0.5
0.5
0.5
0.5
0.5
0.5
0.5
0.5
0.5
0.5
0.5
0.5
0.5
0.5
0.5
0.5
0.5
0.5
0.5
0.5
0.5
0.5
0.5
0.5
0.5
0.5
0.5
0.5
0.5
0.5
0.5
0.5
0.5
0.5
0.5
0.5
0.5
0.5
0.499998
0.499994
0.499999
0.499991
0.499996
0.499997
0.499993
0.499991
0.499998
0.428426
0.428122
0.429087
0.43074
0.5
0.5
0.5
0.5
0.5
0.5
0.5
0.5
0.5
0.5
0.5
0.5
0.5
0.5
0.5
0.5
0.5
0.5
0.5
0.5
0.5
0.5
0.494181
0.497239
0.497623
0.494994
0.493705
0.497558
0.497681
0.496965
0.491569
0.497031
0.494688
0.493616
0.490159
0.492948
0.496853
0.497325
0.5
0.5
0.5
0.5
0.499998
0.499998
0.499999
0.499999
0.5
0.499999
0.499999
0.5
0.499999
0.5
0.499998
0.499999
0.5
0.5
0.5
0.5
0.5
0.5
0.5
0.5
0.5
0.5
0.5
0.5
0.5
0.5
0.5
0.5
0.5
0.5
0.5
0.5
0.5
0.5
0.5
0.5
0.5
0.479576
0.479345
0.479265
0.484621
0.47929
0.479121
0.485014
0.479213
0.480466
0.48448
0.479467
0.472398
0.471727
0.472071
0.471677
0.477075
0.482736
0.48295
0.480292
0.480946
0.482912
0.476284
0.5
0.5
0.5
0.5
0.5
0.5
0.5
0.5
0.5
0.5
0.5
0.5
0.5
0.5
0.5
0.5
0.5
0.5
0.5
0.5
0.5
0.5
0.5
0.5
0.5
0.5
0.5
0.5
0.5
0.5
0.5
0.5
0.5
0.5
0.5
0.5
0.5
0.5
0.5
0.5
0.5
0.5
0.5
0.5
0.5
0.5
0.5
0.5
0.5
0.5
0.463646
0.458217
0.467199
0.459879
0.465609
0.477397
0.470866
0.478606
0.477392
0.485128
0.490478
0.48878
0.476491
0.485596
0.490618
0.482939
0.482304
0.499158
0.499106
0.499825
0.499826
0.499829
0.499849
0.499211
0.499317
0.499224
0.49922
0.499771
0.499646
0.499323
0.499834
0.499568
0.499578
0.499773
0.499685
0.499603
0.499783
0.499782
0.499651
0.495741
0.495943
0.496784
0.496312
0.496219
0.497753
0.498193
0.496365
0.496692
0.499007
0.49883
0.498522
0.497968
0.498769
0.499183
0.498917
0.498527
0.499177
0.470192
0.480062
0.484896
0.483185
0.485931
0.48346
0.469107
0.475874
0.480347
0.476383
0.483742
0.484057
0.479197
0.483181
0.464846
0.476387
0.476817
0.5
0.5
0.5
0.5
0.5
0.5
0.5
0.5
0.5
0.5
0.499285
0.499694
0.498938
0.498943
0.499922
0.499736
0.49919
0.499142
0.499145
0.49922
0.499439
0.499779
0.499275
0.499939
0.499866
0.499459
0.499783
0.499806
0.5
0.5
0.5
0.5
0.5
0.5
0.5
0.5
0.5
0.5
0.5
0.5
0.5
0.499585
0.499583
0.499604
0.4996
0.498925
0.499468
0.499461
0.499509
0.497814
0.497829
0.498865
0.498906
0.49915
0.498845
0.499851
0.499964
0.499632
0.499893
0.499977
0.499893
0.499719
0.499849
0.499946
0.499882
0.499945
0.499849
0.499812
0.499948
0.499723
0.384786
0.389054
0.384199
0.375829
0.378634
0.37502
0.389132
0.39438
0.372249
0.374424
0.360081
0.383451
0.382042
0.383061
0.379409
0.393677
0.390094
0.378023
0.5
0.5
0.5
0.5
0.5
0.5
0.5
0.5
0.5
0.5
0.5
0.5
0.5
0.5
0.5
0.5
0.5
0.5
0.5
0.5
0.5
0.5
0.5
0.5
0.5
0.5
0.5
0.5
0.5
0.5
0.5
0.5
0.4402
0.438561
0.434651
0.435501
0.439256
0.437454
0.434104
0.435723
0.448882
0.43571
0.434841
0.434361
0.435991
0.433306
0.442338
0.430943
0.432455
0.438264
0.5
0.5
0.5
0.5
0.5
0.5
0.5
0.5
0.5
0.5
0.5
0.5
0.5
0.5
0.5
0.5
0.5
0.5
0.5
0.499985
0.499984
0.499992
0.49999
0.49998
0.49998
0.499964
0.499964
0.499972
0.499972
0.499973
0.499977
0.499985
0.499987
0.499965
0.499966
0.49996
0.499975
0.5
0.5
0.5
0.5
0.5
0.5
0.5
0.5
0.5
0.5
0.5
0.5
0.5
0.5
0.5
0.5
0.5
0.5
0.5
0.5
0.5
0.5
0.5
0.5
0.5
0.5
0.5
0.5
0.5
0.5
0.5
0.5
0.5
0.5
0.5
0.5
0.5
0.5
0.5
0.5
0.5
0.5
0.5
0.5
0.5
0.5
0.5
0.5
0.5
0.5
0.5
0.5
0.5
0.5
0.5
0.5
0.5
0.5
0.5
0.5
0.5
0.5
0.5
0.5
0.5
0.5
0.5
0.5
0.5
0.5
0.5
0.5
0.5
0.5
0.5
0.5
0.5
0.5
0.5
0.5
0.49997
0.499974
0.499972
0.499988
0.499985
0.499978
0.499974
0.499978
0.499969
0.499981
0.499989
0.499959
0.49998
0.499985
0.499975
0.49996
0.499962
0.499937
0.499959
0.49993
0.499959
0.49996
0.499932
0.499928
0.49994
0.499953
0.499905
0.49991
0.499985
0.499989
0.499988
0.499969
0.499953
0.5
0.5
0.5
0.5
0.5
0.5
0.5
0.5
0.5
0.5
0.5
0.5
0.5
0.5
0.5
0.49693
0.497164
0.497336
0.497364
0.496587
0.497132
0.495914
0.495231
0.495871
0.5
0.5
0.5
0.5
0.5
0.5
0.5
0.5
0.5
0.5
0.5
0.5
0.5
0.5
0.5
0.5
0.5
0.5
0.5
0.5
0.5
0.5
0.5
0.5
0.5
0.5
0.5
0.5
0.5
0.5
0.5
0.5
0.5
0.5
0.5
0.5
0.5
0.5
0.5
0.5
0.5
0.5
0.5
0.5
0.5
0.5
0.5
0.5
0.5
0.5
0.5
0.5
0.5
0.5
0.5
0.5
0.5
0.5
0.5
0.5
0.5
0.5
0.5
0.5
0.5
0.5
0.5
0.5
0.499695
0.499667
0.499605
0.499647
0.499885
0.499812
0.49989
0.499891
0.499606
0.499932
0.499797
0.499719
0.499765
0.499969
0.49998
0.499816
0.499922
0.499896
0.49996
0.49998
0.499981
0.499977
0.499978
0.499817
0.499979
0.49991
0.499999
0.499999
0.499999
0.499999
0.5
0.5
0.5
0.499997
0.499998
0.499997
0.499998
0.499999
0.499998
0.499999
0.499999
0.499999
0.499999
0.499999
0.5
0.5
0.5
0.5
0.5
0.5
0.5
0.5
0.5
0.5
0.5
0.5
0.5
0.5
0.5
0.5
0.5
0.5
0.5
0.5
0.5
0.5
0.5
0.5
0.5
0.5
0.49737
0.49805
0.497885
0.497341
0.497581
0.497905
0.49767
0.497611
0.497534
0.497291
0.49728
0.497454
0.497272
0.499429
0.499817
0.499861
0.499794
0.499733
0.499427
0.499343
0.49946
0.499853
0.499762
0.499742
0.499717
0.499781
0.499768
0.499752
0.499865
0.499952
0.49993
0.49977
0.499824
0.499955
0.499959
0.499962
0.499961
0.499964
0.499924
0.49993
0.499715
0.499896
0.499927
0.499865
0.499999
0.499999
0.499998
0.499999
0.499999
0.5
0.499999
0.499998
0.499999
0.5
0.499999
0.499999
0.499999
0.499998
0.477935
0.478016
0.482315
0.483617
0.478411
0.478458
0.474487
0.474739
0.477944
0.477422
0.47404
0.5
0.5
0.5
0.5
0.5
0.5
0.5
0.5
0.5
0.5
0.5
0.5
0.5
0.5
0.5
0.5
0.5
0.5
0.5
0.5
0.5
0.5
0.5
0.5
0.5
0.5
0.5
0.5
0.5
0.5
0.5
0.5
0.5
0.5
0.5
0.5
0.5
0.5
0.5
0.5
0.5
0.5
0.5
0.5
0.5
0.5
0.5
0.5
0.5
0.5
0.5
0.5
0.5
0.5
0.5
0.5
0.5
0.5
0.5
0.5
0.5
0.5
0.5
0.5
0.5
0.5
0.5
0.5
0.5
0.5
0.5
0.5
0.5
0.5
0.5
0.5
0.5
0.5
0.5
0.5
0.5
0.5
0.5
0.5
0.5
0.5
0.5
0.5
0.5
0.5
0.5
0.5
0.5
0.5
0.5
0.5
0.5
0.5
0.5
0.499944
0.499947
0.49994
0.49994
0.499979
0.499966
0.499976
0.499952
0.499996
0.499996
0.499986
0.499995
0.499991
0.499985
0.499996
0.499996
0.499979
0.499986
0.497824
0.494938
0.497593
0.497251
0.497642
0.49585
0.49871
0.49887
0.49585
0.498778
0.496849
0.494627
0.496939
0.496948
0.497088
0.497753
0.498872
0.497635
0.496827
0.498839
0.495165
0.49708
0.49828
0.498852
0.49738
0.495435
0.495435
0.49988
0.499856
0.499876
0.499907
0.499778
0.494966
0.493398
0.494796
0.497812
0.491461
0.498512
0.492562
0.463544
0.471032
0.483723
0.469751
0.460735
0.487045
0.475819
0.498094
0.474482
0.475843
0.484885
0.481406
0.472905
0.48978
0.48665
0.473618
0.472352
0.488026
0.490963
0.478117
0.480999
0.490148
0.488818
0.477059
0.475798
0.483504
0.5
0.5
0.5
0.5
0.5
0.5
0.5
0.5
0.5
0.5
0.5
0.5
0.5
0.5
0.5
0.5
0.5
0.5
0.5
0.5
0.499996
0.499996
0.499997
0.499998
0.499998
0.499998
0.499998
0.499997
0.499996
0.499997
0.499998
0.499998
0.499998
0.499998
0.499987
0.5
0.499986
0.499983
0.5
0.499999
0.49997
0.499996
0.5
0.499989
0.499985
0.499969
0.5
0.5
0.5
0.5
0.5
0.5
0.493893
0.489833
0.490218
0.48074
0.477211
0.486024
0.487304
0.497374
0.477401
0.486845
0.495962
0.495178
0.495989
0.49496
0.491209
0.497938
0.481953
0.486958
0.498172
0.495188
0.497444
0.498749
0.5
0.5
0.5
0.5
0.5
0.5
0.5
0.5
0.5
0.5
0.5
0.5
0.5
0.5
0.5
0.5
0.5
0.5
0.5
0.5
0.5
0.5
0.5
0.5
0.5
0.5
0.5
0.5
0.5
0.5
0.5
0.5
0.5
0.5
0.5
0.469938
0.460994
0.468673
0.457944
0.460841
0.462929
0.464693
0.473827
0.5
0.499999
0.5
0.5
0.5
0.5
0.5
0.499999
0.5
0.5
0.499999
0.5
0.5
0.5
0.5
0.5
0.5
0.5
0.5
0.5
0.5
0.5
0.5
0.5
0.5
0.5
0.5
0.5
0.5
0.5
0.5
0.5
0.5
0.5
0.5
0.5
0.5
0.5
0.5
0.5
0.5
0.5
0.5
0.5
0.5
0.5
0.5
0.5
0.499973
0.499983
0.499986
0.499992
0.499981
0.499987
0.499992
0.499993
0.499993
0.499994
0.499973
0.499993
0.499994
0.499993
0.499963
0.499974
0.499987
0.499992
0.499992
0.499993
0.499963
0.499992
0.5
0.5
0.5
0.5
0.5
0.5
0.5
0.5
0.5
0.5
0.5
0.5
0.5
0.5
0.5
0.5
0.447872
0.451255
0.455025
0.455227
0.44878
0.451428
0.461257
0.46121
0.459888
0.457866
0.466735
0.466103
0.456268
0.457747
0.455425
0.462793
0.452411
0.450246
0.499903
0.498363
0.498551
0.4994
0.499185
0.499174
0.497917
0.498066
0.499915
0.499915
0.499194
0.499183
0.499537
0.499837
0.499813
0.499797
0.5
0.5
0.5
0.5
0.5
0.5
0.5
0.5
0.5
0.5
0.5
0.5
0.5
0.5
0.5
0.5
0.5
0.5
0.5
0.5
0.499999
0.499999
0.499995
0.499996
0.5
0.5
0.5
0.5
0.499998
0.499997
0.5
0.5
0.5
0.5
0.5
0.5
0.499429
0.499412
0.499453
0.499353
0.499754
0.499384
0.49981
0.49939
0.49981
0.499932
0.499848
0.499904
0.499886
0.499864
0.49982
0.499868
0.499885
0.499758
0.499836
0.499943
0.499882
0.499909
0.499756
0.499827
0.49993
0.499942
0.499796
0.499861
0.499932
0.499999
0.499999
0.499997
0.499998
0.499998
0.499998
0.499998
0.5
0.499999
0.5
0.499999
0.499999
0.499999
0.499997
0.499997
0.499999
0.499999
0.499998
0.499938
0.499951
0.499975
0.499971
0.499943
0.499963
0.499931
0.499949
0.499955
0.5
0.5
0.5
0.5
0.5
0.5
0.5
0.5
0.499999
0.499997
0.499997
0.5
0.5
0.5
0.5
0.5
0.5
0.5
0.5
0.5
0.5
0.5
0.5
0.5
0.5
0.5
0.5
0.5
0.5
0.5
0.5
0.5
0.5
0.5
0.5
0.5
0.5
0.5
0.5
0.5
0.5
0.5
0.5
0.5
0.5
0.5
0.5
0.5
0.5
0.5
0.5
0.499796
0.49971
0.49967
0.499799
0.499946
0.499946
0.499956
0.499965
0.49974
0.499907
0.499942
0.499922
0.499943
0.499905
0.499928
0.5
0.5
0.5
0.5
0.5
0.5
0.5
0.5
0.5
0.5
0.5
0.5
0.5
0.5
0.5
0.5
0.5
0.489666
0.489565
0.4915
0.491907
0.495813
0.495769
0.492822
0.492402
0.496751
0.497138
0.491646
0.496691
0.497216
0.495478
0.497025
0.496672
0.497178
0.497258
0.497841
0.498199
0.498222
0.497781
0.496076
0.495603
0.491752
0.492834
0.492669
0.490203
0.4963
0.496089
0.495558
0.495396
0.496344
0.494542
0.49126
0.492207
0.492053
0.5
0.5
0.5
0.5
0.5
0.5
0.5
0.5
0.5
0.5
0.5
0.5
0.5
0.5
0.5
0.5
0.499964
0.499953
0.499986
0.499977
0.499964
0.499918
0.49993
0.499936
0.499955
0.499973
0.499975
0.499942
0.499988
0.499983
0.499935
0.499975
0.499974
0.499975
0.5
0.5
0.5
0.5
0.5
0.5
0.5
0.5
0.5
0.5
0.5
0.5
0.5
0.5
0.5
0.5
0.5
0.5
0.5
0.5
0.5
0.5
0.5
0.5
0.5
0.5
0.5
0.5
0.5
0.5
0.5
0.5
0.5
0.5
0.5
0.5
0.5
0.5
0.5
0.5
0.5
0.5
0.5
0.5
0.5
0.5
0.5
0.499975
0.499979
0.499977
0.499981
0.499837
0.499877
0.499901
0.499839
0.499842
0.499966
0.499948
0.499976
0.49998
0.499871
0.499948
0.499957
0.499031
0.499036
0.498585
0.498753
0.498766
0.497963
0.497953
0.496768
0.496791
0.498428
0.497228
0.497211
0.496757
0.5
0.5
0.5
0.5
0.5
0.5
0.5
0.5
0.5
0.5
0.5
0.5
0.5
0.5
0.5
0.499985
0.49999
0.499995
0.499989
0.5
0.5
0.5
0.5
0.5
0.5
0.5
0.5
0.5
0.5
0.499998
0.5
0.5
0.5
0.5
0.5
0.5
0.5
0.5
0.5
0.5
0.5
0.5
0.5
0.5
0.5
0.5
0.5
0.499899
0.499889
0.499847
0.499848
0.499907
0.499923
0.499877
0.499822
0.49981
0.499857
0.499794
0.499754
0.499897
0.499816
0.499752
0.499813
0.499779
0.499711
0.465179
0.461567
0.455569
0.456916
0.465959
0.462144
0.464841
0.450195
0.452592
0.457983
0.455923
0.457612
0.465505
0.462037
0.46088
0.450611
0.44535
0.445668
0.439403
0.455314
0.49999
0.499986
0.49999
0.499989
0.499992
0.498415
0.498408
0.498324
0.498311
0.49905
0.499055
0.499189
0.499232
0.497752
0.497987
0.49805
0.498641
0.499099
0.498739
0.499796
0.499795
0.499942
0.499945
0.499797
0.499796
0.499938
0.499937
0.499945
0.499869
0.499568
0.5
0.5
0.5
0.5
0.5
0.5
0.5
0.5
0.5
0.5
0.5
0.499968
0.499967
0.499971
0.49997
0.499969
0.499967
0.499965
0.499971
0.499965
0.499962
0.499961
0.499959
0.499985
0.499986
0.499972
0.5
0.5
0.5
0.5
0.5
0.5
0.5
0.5
0.5
0.5
0.5
0.5
0.5
0.5
0.5
0.5
0.5
0.5
0.5
0.5
0.5
0.499995
0.499994
0.499995
0.499995
0.499996
0.499997
0.5
0.5
0.5
0.5
0.5
0.5
0.5
0.499999
0.5
0.5
0.499999
0.5
0.5
0.5
0.5
0.5
0.5
0.5
0.5
0.5
0.5
0.5
0.5
0.5
0.5
0.5
0.5
0.5
0.5
0.5
0.5
0.5
0.5
0.5
0.5
0.5
0.5
0.5
0.5
0.5
0.5
0.5
0.5
0.5
0.5
0.499999
0.499999
0.499999
0.499999
0.499998
0.499998
0.5
0.499998
0.499998
0.5
0.5
0.499998
0.499998
0.5
0.5
0.5
0.5
0.5
0.5
0.5
0.5
0.5
0.5
0.5
0.5
0.499702
0.499655
0.499148
0.4998
0.499605
0.49944
0.499572
0.499135
0.499141
0.499342
0.499493
0.499638
0.499543
0.499799
0.499534
0.5
0.5
0.5
0.5
0.5
0.5
0.5
0.5
0.5
0.5
0.5
0.5
0.5
0.5
0.5
0.5
0.5
0.5
0.499932
0.499911
0.49995
0.499949
0.499957
0.499865
0.49983
0.499855
0.499956
0.499952
0.499911
0.499984
0.499975
0.499855
0.4999
0.499835
0.499841
0.499817
0.499986
0.499975
0.499985
0.5
0.5
0.5
0.5
0.5
0.5
0.5
0.5
0.5
0.5
0.5
0.5
0.5
0.5
0.5
0.5
0.5
0.5
0.5
0.5
0.5
0.5
0.5
0.5
0.5
0.5
0.5
0.5
0.5
0.5
0.5
0.5
0.5
0.5
0.5
0.5
0.5
0.5
0.5
0.5
0.440434
0.392785
0.451506
0.449163
0.403311
0.381248
0.415917
0.430397
0.426654
0.425031
0.412616
0.438232
0.378763
0.403254
0.402777
0.404473
0.420455
0.499025
0.498832
0.498943
0.499066
0.498611
0.497986
0.498582
0.498044
0.498999
0.498497
0.498697
0.497777
0.498739
0.4981
0.497678
0.5
0.5
0.5
0.5
0.5
0.5
0.5
0.5
0.5
0.5
0.5
0.5
0.5
0.5
0.5
0.5
0.5
0.5
0.5
0.5
0.5
0.5
0.5
0.5
0.5
0.5
0.5
0.5
0.5
0.5
0.5
0.5
0.5
0.5
0.5
0.5
0.5
0.5
0.5
0.5
0.5
0.5
0.5
0.5
0.499995
0.496866
0.496834
0.496826
0.499903
0.49917
0.499995
0.499747
0.499965
0.499997
0.499998
0.499997
0.499997
0.499997
0.499997
0.499994
0.499992
0.499992
0.499989
0.499989
0.499994
0.499995
0.499992
0.499997
0.499992
0.499992
0.499996
0.5
0.5
0.5
0.5
0.5
0.5
0.5
0.5
0.5
0.5
0.5
0.5
0.5
0.5
0.5
0.5
0.5
0.5
0.5
0.5
0.5
0.5
0.5
0.5
0.5
0.5
0.5
0.5
0.5
0.5
0.5
0.499995
0.499994
0.499991
0.499991
0.499989
0.499991
0.499995
0.499991
0.499992
0.49999
0.5
0.5
0.5
0.5
0.5
0.5
0.5
0.5
0.5
0.5
0.5
0.5
0.5
0.5
0.5
0.5
0.5
0.5
0.5
0.5
0.5
0.5
0.5
0.5
0.5
0.5
0.5
0.5
0.5
0.5
0.5
0.5
0.5
0.5
0.5
0.5
0.5
0.5
0.5
0.5
0.5
0.5
0.5
0.5
0.5
0.5
0.5
0.5
0.5
0.5
0.5
0.5
0.5
0.5
0.5
0.5
0.5
0.5
0.5
0.5
0.5
0.5
0.5
0.5
0.5
0.5
0.5
0.5
0.5
0.5
0.5
0.5
0.5
0.5
0.5
0.5
0.5
0.5
0.5
0.5
0.5
0.5
0.5
0.5
0.5
0.5
0.5
0.5
0.5
0.5
0.5
0.5
0.5
0.5
0.5
0.5
0.5
0.5
0.5
0.5
0.5
0.5
0.5
0.5
0.5
0.5
0.5
0.5
0.5
0.5
0.5
0.5
0.5
0.5
0.5
0.5
0.5
0.5
0.5
0.5
0.5
0.5
0.5
0.5
0.5
0.5
0.5
0.5
0.5
0.5
0.499998
0.499998
0.499995
0.499995
0.5
0.499998
0.5
0.499999
0.499998
0.5
0.5
0.5
0.5
0.5
0.5
0.5
0.5
0.5
0.5
0.5
0.5
0.5
0.5
0.5
0.5
0.5
0.5
0.5
0.5
0.5
0.5
0.5
0.5
0.5
0.5
0.5
0.5
0.5
0.5
0.5
0.5
0.5
0.5
0.5
0.5
0.5
0.5
0.5
0.5
0.5
0.5
0.5
0.5
0.5
0.5
0.5
0.5
0.5
0.5
0.5
0.5
0.5
0.5
0.5
0.5
0.5
0.5
0.5
0.5
0.5
0.5
0.5
0.5
0.5
0.5
0.5
0.5
0.5
0.5
0.5
0.5
0.5
0.5
0.5
0.5
0.5
0.5
0.5
0.5
0.5
0.5
0.5
0.5
0.5
0.5
0.5
0.5
0.5
0.5
0.5
0.5
0.5
0.5
0.5
0.5
0.5
0.5
0.5
0.5
0.5
0.5
0.5
0.5
0.5
0.5
0.5
0.5
0.5
0.5
0.5
0.5
0.5
0.5
0.5
0.5
0.5
0.49997
0.499971
0.499985
0.499987
0.499974
0.499992
0.499991
0.499979
0.499993
0.499991
0.499982
0.499981
0.499979
0.499974
0.499971
0.499972
0.499993
0.499986
0.499993
0.499993
0.499991
0.499974
0.499986
0.499971
0.499981
0.499984
0.49998
0.499982
0.499982
0.49998
0.499981
0.499982
0.499982
0.499984
0.49998
0.499982
0.499983
0.5
0.5
0.5
0.5
0.5
0.5
0.5
0.5
0.5
0.5
0.5
0.5
0.5
0.5
0.5
0.5
0.5
0.5
0.5
0.499999
0.5
0.499999
0.5
0.5
0.5
0.499999
0.499999
0.5
0.499999
0.5
0.5
0.5
0.5
0.5
0.5
0.5
0.5
0.5
0.5
0.5
0.5
0.5
0.5
0.5
0.5
0.5
0.5
0.5
0.5
0.5
0.5
0.5
0.5
0.5
0.5
0.5
0.499999
0.5
0.499999
0.499999
0.5
0.5
0.5
0.5
0.5
0.5
0.5
0.5
0.5
0.5
0.5
0.5
0.5
0.5
0.5
0.5
0.5
0.5
0.5
0.5
0.5
0.5
0.5
0.5
0.5
0.5
0.5
0.5
0.5
0.5
0.5
0.5
0.5
0.5
0.5
0.5
0.5
0.5
0.5
0.5
0.5
0.5
0.5
0.5
0.5
0.5
0.5
0.455567
0.454492
0.456387
0.448862
0.447676
0.44665
0.441849
0.441433
0.440016
0.440352
0.445756
0.438345
0.484431
0.483473
0.494312
0.494052
0.475912
0.47134
0.496462
0.49634
0.496554
0.496593
0.496826
0.494426
0.494717
0.494799
0.415964
0.4116
0.421553
0.437675
0.459044
0.452803
0.461897
0.453202
0.464236
0.446912
0.444438
0.459315
0.443414
0.452369
0.446787
0.448762
0.458222
0.448535
0.321824
0.332757
0.366193
0.378659
0.371641
0.332782
0.373108
0.3788
0.375382
0.313221
0.314423
0.310024
0.331807
0.329792
0.329795
0.367541
0.367818
0.325183
0.5
0.5
0.5
0.5
0.5
0.5
0.5
0.5
0.5
0.5
0.5
0.5
0.5
0.5
0.5
0.5
0.499999
0.499999
0.499999
0.499999
0.5
0.5
0.5
0.5
0.499999
0.499999
0.5
0.5
0.5
0.5
0.5
0.5
0.5
0.5
0.5
0.5
0.5
0.5
0.5
0.5
0.5
0.5
0.5
0.5
0.5
0.499992
0.499995
0.499995
0.499994
0.499992
0.499999
0.499999
0.499997
0.5
0.499998
0.499997
0.499999
0.499999
0.5
0.5
0.5
0.5
0.5
0.5
0.5
0.5
0.5
0.5
0.5
0.5
0.5
0.5
0.5
0.396974
0.399652
0.400914
0.419166
0.421641
0.39218
0.400365
0.416221
0.406042
0.398524
0.412969
0.418358
0.473639
0.477917
0.491783
0.491772
0.478794
0.478007
0.47232
0.487091
0.486982
0.477395
0.47186
0.5
0.5
0.5
0.5
0.5
0.5
0.5
0.5
0.5
0.5
0.5
0.5
0.5
0.5
0.498768
0.497342
0.497683
0.496846
0.491763
0.494086
0.490057
0.496819
0.498572
0.499148
0.495186
0.49132
0.499155
0.496187
0.492806
0.491926
0.488854
0.488974
0.492227
0.495931
0.497257
0.492039
0.497599
0.498257
0.495023
0.494052
0.494576
0.4979
0.497135
0.495278
0.495836
0.496469
0.497494
0.497541
0.497874
0.499352
0.499253
0.499048
0.499264
0.499053
0.499312
0.499443
0.49954
0.499542
0.499079
0.499515
0.499191
0.499361
0.499132
0.498008
0.498536
0.498204
0.497375
0.495402
0.495436
0.497711
0.496217
0.496447
0.455685
0.455691
0.455973
0.429092
0.429858
0.449047
0.43075
0.431946
0.449357
0.451954
0.448597
0.443699
0.498264
0.49839
0.498082
0.498068
0.497463
0.498252
0.497368
0.497372
0.497149
0.497772
0.497173
0.497307
0.49704
0.497349
0.49695
0.496936
0.5
0.5
0.5
0.5
0.5
0.5
0.5
0.5
0.5
0.5
0.5
0.5
0.5
0.5
0.5
0.5
0.5
0.5
0.49302
0.493583
0.494934
0.422757
0.499998
0.499977
0.499975
0.495748
0.498247
0.451028
0.406793
0.499757
0.490778
0.499994
0.5
0.5
0.5
0.5
0.5
0.5
0.5
0.5
0.5
0.499988
0.5
0.492735
0.5
0.497773
0.499916
0.499883
0.490603
0.491485
0.497977
0.4913
0.490407
0.498666
0.37524
0.401372
0.400186
0.487866
0.498717
0.388017
0.409869
0.499835
0.499837
0.397445
0.407457
0.485318
0.459024
0.320924
0.5
0.499876
0.5
0.499911
0.499952
0.423209
0.5
0.330087
0.444378
0.499794
0.499994
0.499999
0.499999
0.499999
0.439107
0.4863
0.5
0.499999
0.426832
0.5
0.499999
0.412669
0.5
0.499999
0.5
0.391259
0.499999
0.5
0.388525
0.5
0.499307
0.5
0.5
0.5
0.5
0.5
0.5
0.499743
0.5
0.5
0.5
0.499999
0.5
0.5
0.5
0.5
0.5
0.499999
0.5
0.5
0.48724
0.494916
0.5
0.5
0.5
0.499981
0.5
0.442173
0.5
0.499999
0.489975
0.440178
0.5
0.499998
0.490311
0.437848
0.499997
0.5
0.5
0.490553
0.5
0.499997
0.499996
0.44734
0.5
0.5
0.5
0.5
0.494388
0.5
0.49991
0.488229
0.5
0.5
0.5
0.5
0.5
0.5
0.5
0.499998
0.5
0.499972
0.5
0.5
0.5
0.499984
0.5
0.5
0.499981
0.5
0.499978
0.5
0.5
0.499977
0.5
0.5
0.5
0.5
0.5
0.5
0.5
0.5
0.5
0.5
0.5
0.5
0.5
0.5
0.5
0.5
0.5
0.5
0.5
0.5
0.5
0.5
0.5
0.5
0.5
0.5
0.5
0.5
0.5
0.5
0.5
0.5
0.5
0.5
0.5
0.5
0.5
0.5
0.5
0.5
0.5
0.5
0.5
0.5
0.5
0.5
0.5
0.5
0.5
0.5
0.5
0.5
0.5
0.5
0.5
0.5
0.5
0.5
0.5
0.5
0.5
0.5
0.5
0.5
0.5
0.5
0.5
0.5
0.5
0.5
0.5
0.5
0.5
0.5
0.5
0.5
0.5
0.5
0.5
0.5
0.5
0.5
0.5
0.5
0.5
0.5
0.5
0.5
0.5
0.5
0.5
0.5
0.5
0.5
0.5
0.5
0.5
0.5
0.5
0.5
0.5
0.5
0.5
0.5
0.5
0.5
0.5
0.5
0.5
0.5
0.5
0.5
0.5
0.5
0.5
0.5
0.5
0.5
0.5
0.5
0.5
0.5
0.5
0.5
0.5
0.5
0.5
0.5
0.5
0.5
0.49999
0.5
0.5
0.5
0.5
0.5
0.5
0.5
0.5
0.5
0.5
0.5
0.5
0.5
0.5
0.5
0.499354
0.499272
0.492408
0.5
0.5
0.5
0.5
0.5
0.5
0.5
0.5
0.5
0.5
0.5
0.499999
0.499996
0.298462
0.274008
0.330511
0.5
0.5
0.5
0.5
0.5
0.5
0.5
0.499999
0.499999
0.499999
0.5
0.499999
0.499999
0.5
0.499968
0.499969
0.49998
0.499008
0.498363
0.496868
0.499254
0.498711
0.464993
0.4784
0.446189
0.498564
0.49774
0.49784
0.480238
0.49994
0.463016
0.481819
0.436449
0.429114
0.499917
0.499937
0.5
0.5
0.5
0.5
0.5
0.5
0.5
0.5
0.5
0.421711
0.478462
0.499995
0.49998
0.499995
0.499983
0.499987
0.499993
0.499997
0.499987
0.499974
0.499991
0.499988
0.499974
0.499985
0.468757
0.47458
0.467364
0.499206
0.499641
0.499192
0.499971
0.499979
0.499959
0.499972
0.499959
0.499974
0.499926
0.49993
0.499965
0.359548
0.360675
0.290443
0.293764
0.499991
0.499992
0.499979
0.49998
0.496769
0.489707
0.48866
0.498162
0.497738
0.498131
0.492874
0.492789
0.499924
0.499892
0.499882
0.499901
0.499923
0.485766
0.485248
0.422156
0.442504
0.443013
0.415186
0.483731
0.497688
0.494775
0.495656
0.497748
0.496255
0.496386
0.496453
0.493728
0.493733