/*--------------------------------*- C++ -*----------------------------------*\
  =========                 |
  \\      /  F ield         | OpenFOAM: The Open Source CFD Toolbox
   \\    /   O peration     | Website:  https://openfoam.org
    \\  /    A nd           | Version:  10
     \\/     M anipulation  |
\*---------------------------------------------------------------------------*/
FoamFile
{
    format      ascii;
    class       volScalarField;
    location    "20";
    object      eff_dif;
}
// * * * * * * * * * * * * * * * * * * * * * * * * * * * * * * * * * * * * * //

dimensions      [0 2 -1 0 0 0 0];

internalField   nonuniform List<scalar> 
75457
(
-0.032865
-0.0297019
-0.0255128
-0.0232625
-0.0187261
-0.0199405
-0.0286747
-0.0282749
-0.0178815
-0.0125276
-0.0163703
-0.0178613
-0.0172216
-0.0150059
-0.00356997
-0.00404259
-0.00377702
-0.00392946
-0.00438466
-0.00391804
-0.003402
-0.00406833
-0.0040803
-0.00435796
-0.00414238
-0.00451571
-0.00424311
-0.000969635
-0.00103116
-0.000569981
-0.00018252
-0.000576368
-0.000671317
-0.000636937
-2.20453e-05
-0.00100125
-0.000904035
-0.00130668
-0.00139532
-0.000336242
-0.000539288
-0.000367164
-0.000795147
-0.00915173
-0.00895918
-0.0081462
-0.00826131
-0.00860761
-0.00448966
-0.00495717
-0.0052985
-0.0047952
-0.00498125
-0.00503605
-0.00538484
-0.0053847
-0.00516046
-0.00536487
-0.0047669
-0.00507084
-0.0048367
-0.00472455
0.0320346
0.0322953
0.0320355
0.03236
0.0325858
0.0326136
0.0322742
0.0323123
0.0325716
0.032363
0.0321085
0.0323523
0.0323422
0.0320338
0.0322321
-0.00797838
-0.00910619
-0.00737188
-0.00943961
-0.0111292
-0.00497623
-0.00528808
-0.00761088
-0.00823207
-0.0078531
-0.00802194
-0.00519412
-0.00677013
-0.00519559
-0.00521037
-0.00665853
-0.0054849
-0.0064771
-0.00663612
-0.00666213
-0.00700737
-0.00660019
-0.00644309
-0.00761244
-0.0068444
0.0325105
0.0323991
0.0326617
0.0326779
0.0325433
0.0323934
0.0323134
0.0327656
0.0327679
0.03238
0.0323915
0.0230684
0.0237321
0.0262052
0.0257774
0.0231319
0.0247167
0.0247494
0.0242164
0.0245748
0.0262713
0.0260545
0.0265993
0.0271405
0.0258897
0.025326
0.0241248
0.0265531
0.0255457
0.0145591
0.0145204
0.0139356
0.0148302
0.0144201
0.0159591
0.0156422
0.0155299
0.0155181
0.00860142
0.00814035
0.00871184
0.00825229
0.0076812
0.00819498
0.0082191
0.00726637
-0.00652996
-0.00657188
-0.00596028
-0.00616073
-0.0065529
-0.00620374
-0.00590984
-0.00541656
-0.00387856
-0.00391837
-0.00546553
-0.00519018
-0.00472036
-0.00542869
-0.00430219
0.0171673
0.0187765
0.01902
0.0183558
0.018778
0.0150455
0.0164348
0.018003
0.0170076
0.0179744
0.01529
0.0139671
0.0145628
-0.00892039
-0.0093926
-0.00926325
-0.00947296
-0.00924241
-0.0093712
-0.00869813
-0.00939598
-0.00923702
-0.00948047
-0.00946761
-0.00930403
-0.00922954
-0.00934715
-0.00819274
-0.00681972
-0.00931079
-0.00671267
-0.0070296
-0.00862694
0.0133983
0.0141905
0.0128662
0.0135993
0.0118199
0.0126322
0.0149548
0.0146845
0.0137656
0.0110274
0.0110088
-0.00719554
-0.00704234
-0.0074569
-0.00741546
-0.00736461
-0.00729283
-0.00712869
-0.00701395
-0.00662141
-0.00744516
-0.00719476
-0.00697389
-0.0073312
-0.00694358
0.00733074
0.00638375
0.00678488
0.00507646
0.0056355
0.00640209
0.00632876
0.00756709
0.0071391
0.00619045
0.00558129
0.00491685
0.00717942
0.00561323
-0.00665184
-0.00672787
-0.00646478
-0.00642708
-0.00672286
-0.00665996
-0.00673537
-0.00669098
-0.00688405
-0.00642885
-0.00667651
-0.00615872
-0.00677654
-0.00686179
-0.00660487
-0.00656732
-0.00671499
-0.00919842
-0.00897088
-0.00892818
-0.00889056
-0.0101348
-0.00863387
-0.00853616
-0.00794289
-0.00880796
-0.00927141
-0.00830297
-0.00897007
-0.00904542
-0.00900361
-0.0088332
-0.00898082
-0.00879688
-0.00934082
-0.00956334
-0.0092806
-0.00909845
-0.00948846
-0.00899989
-0.00877657
-0.00912922
-0.00394447
-0.0036925
-0.00399764
-0.00342997
-0.00345024
-0.00331176
-0.00310757
-0.00306752
-0.0030337
-0.00354346
-0.00386153
-0.00373247
-0.00295798
-0.00340605
-0.00332199
-0.000578866
-0.000401464
-0.000284288
-0.000522474
-0.0002722
-0.000302527
-0.000658855
-0.00100368
7.73183e-06
-6.25651e-05
0.00020818
-8.39355e-05
-0.000249158
0.000109449
0.000599159
0.000213935
-5.32297e-05
0.000306486
6.33194e-05
9.10901e-06
-3.77379e-05
-0.000157674
-0.0042508
-0.00447538
-0.00370098
-0.00392018
-0.00406719
-0.00401314
-0.00453823
-0.00450559
-0.0048768
-0.00495762
-0.0045313
-0.00658961
-0.00670754
-0.00687958
-0.00686175
-0.00677633
-0.0065366
-0.0065517
-0.00697361
-0.00721762
-0.00696709
-0.00721506
-0.00633362
-0.0066246
-0.00678027
-0.00692302
-0.00670283
-0.00684817
-0.0133641
-0.0123163
-0.0120227
-0.0135418
-0.0162074
-0.0154779
-0.0154518
-0.014811
-0.0145804
-0.01395
-0.0154802
-0.00303809
-0.00320213
-0.00366625
-0.00349476
-0.00334037
-0.00357532
-0.00333293
-0.00398228
-0.00359902
-0.00361322
-0.0031447
-0.000162514
2.69533e-05
-0.000223343
-0.000259849
-1.86768e-05
-7.19368e-05
-0.000323056
-9.28722e-05
-0.000433221
-0.000434373
-0.000564757
-0.000219833
-0.000346008
-0.000807156
-0.000834635
-0.00462846
-0.00388389
-0.00517836
-0.00448797
-0.00446698
-0.00679868
-0.0071644
-0.00677222
-0.00707987
-0.00716974
-0.00678521
-0.0075605
0.0507407
0.055531
0.0441803
0.0467949
0.0496081
0.0516884
0.0513114
0.054151
0.0468352
0.0512252
0.0494239
0.0504479
0.0466219
0.0510648
0.0452826
0.0468188
0.0487186
0.0437504
0.0355759
0.0351248
0.0359199
0.0366639
0.0375594
0.0385458
0.0357854
0.0363988
0.0389065
0.0423915
0.0391242
0.0392965
0.0409739
0.0269717
0.0242009
0.0216013
0.0232282
0.0278703
0.0245729
0.0231202
0.0245109
0.024162
0.0222724
0.0295463
0.0295113
0.0225769
0.024121
0.0216206
0.0278404
0.0299384
0.0299726
0.0259568
0.0259429
0.0266202
0.0279409
-0.00838244
-0.00873084
-0.00895841
-0.00894024
-0.00904588
-0.00846873
-0.00853355
-0.00866552
-0.00880446
-0.0084712
-0.00889466
-0.00847387
-0.00862744
-0.00856747
-0.00871902
-0.0086809
-0.0220337
-0.0247095
-0.0125999
-0.0203936
-0.0109233
-0.0175769
-0.0149791
-0.0123052
-0.011112
-0.0156908
-0.0289385
-0.0241711
-0.0156189
-0.0219322
-0.0109484
-0.0133663
0.00277497
0.00261722
0.00278308
0.00363047
0.00400321
0.00461368
0.00242418
0.00209444
0.00375975
0.00373244
0.00462152
0.00426983
0.00399502
0.00391806
0.00375628
0.00309745
0.00235921
0.00317292
0.0346951
0.0386646
0.0372128
0.0338765
0.0351934
0.0379332
0.041494
0.0405911
0.035406
0.0414125
0.043087
0.041371
0.0374768
0.0342574
0.0350536
0.036133
0.0278015
0.0271477
0.0276492
0.0274201
0.026568
0.0283631
0.028937
0.0283156
0.0276849
0.0286187
0.0280606
0.0272406
0.0280979
0.0265171
0.0272035
0.0287346
0.0292121
0.0130863
0.0129411
0.0126597
0.0130327
0.0130222
0.0130707
0.0131401
0.0132303
0.0132749
0.013119
0.0127518
0.0128196
0.0133401
0.0129822
0.013083
0.0123799
0.0123732
-0.00391808
-0.0049096
-0.00653939
-0.00551165
-0.00452494
-0.00459866
-0.00421709
-0.00422483
-0.00495981
-0.00449477
-0.00619016
-0.00626156
-0.00523041
-0.00347048
-0.00588131
-0.00494186
-0.00488594
-0.00560855
-0.00345144
-0.00354159
-0.00340782
-0.00339248
-0.00282267
-0.00312699
-0.00325234
-0.00330004
-0.00282787
-0.00303161
-0.00317118
-0.00277835
-0.00271845
-0.00303019
-0.00547052
-0.0050481
-0.00590069
-0.00679153
-0.00679888
-0.00617135
-0.00585653
-0.00581127
-0.00571821
-0.00667818
-0.00669068
-0.00651665
-0.00609484
-0.00558063
-0.00589628
-0.00659282
-0.00680695
-0.00693392
0.022319
0.0180788
0.01889
0.0256004
0.0219191
0.0160653
0.01901
0.0190931
0.0155926
0.0239405
0.0191443
0.0162485
-0.00803954
-0.00775855
-0.00758102
-0.00744436
-0.00781458
-0.00760876
-0.00634133
-0.00670933
-0.00771685
-0.00766638
-0.00757358
-0.00674217
-0.00675195
-0.00737919
-0.00748307
-0.00730845
-0.00420167
-0.00480599
-0.00378392
-0.00431054
-0.00544053
-0.00529438
-0.00529181
-0.0041479
-0.0038531
-0.00396553
-0.00405065
-0.00476262
-0.00530617
-0.00437802
-0.00386759
-0.00465187
0.00536712
0.00460182
0.00393827
0.00715627
0.00803726
0.00562403
0.00633488
0.0031021
0.00466484
0.00536139
0.00693849
0.00586593
0.00692402
0.00773949
0.00746917
0.00439883
0.00450553
0.00579697
0.0038886
-0.00215121
-0.00116645
-0.00213968
-0.00359571
-0.00267287
-0.00165143
-0.003404
-0.002954
-0.00217269
-0.00256649
-0.00211537
-0.00348428
-0.00231824
-0.00194133
-0.00124719
-0.00102087
-0.00104553
-0.00166431
-0.00136129
-0.00132515
-0.00119946
-0.00122672
-0.00163386
-0.00107496
-0.00152219
-0.00111043
-0.00186129
-0.000912202
-0.000892274
-0.0010762
-0.000957074
-0.00123808
-0.00313943
-0.00376383
-0.00282289
-0.0014327
-0.00190066
-0.0055786
-0.00306569
-0.00273564
-0.0027472
-0.00384435
-0.00527882
-0.0068234
-0.00711454
-0.00709057
-0.0069317
-0.00802843
-0.00845027
-0.00808635
-0.0090556
-0.00636246
-0.00616013
-0.00838773
-0.00960721
-0.00920855
-0.00831601
-0.00814417
-0.0094602
-0.00823723
-0.00793524
-0.00842233
-0.00856763
-0.00729874
-0.00906061
-0.00911554
-0.00883374
-0.00901843
-0.00877819
-0.00897303
-0.00902141
-0.00878785
-0.00861167
-0.00875604
-0.00897119
-0.00874891
-0.00882509
-0.00874654
-0.00885962
-0.0087872
-0.00879146
-0.0058486
-0.00635204
-0.00788314
-0.00785668
-0.00666689
-0.00722171
-0.00780647
-0.00757092
-0.00680632
-0.00770943
-0.00684169
-0.00344224
-0.00422638
-0.00249606
-0.002414
-0.00266522
-0.00244971
-0.00258373
-0.00153854
-0.00256234
-0.00285331
-0.0024244
-0.00264561
-0.00203882
-0.00250185
-0.00231579
-0.0023045
-0.00260495
-0.00252892
-0.00195631
-0.00244972
-0.0022241
-0.00261818
-0.00259108
-0.00215685
-0.00218534
-0.00232495
-0.0019908
-0.00229778
-0.00214175
-0.00194201
-0.00219077
-0.00190194
-0.00212577
-0.00225119
-0.00196821
-0.00542469
-0.00565545
-0.00557304
-0.00550114
-0.00508646
-0.00458476
-0.00553653
-0.00434849
-0.00513126
-0.00391298
-0.0046716
-0.00505185
-0.00531041
-0.00483948
-0.00465217
-0.00607341
-0.00501496
-0.00446502
-0.00421556
-0.00417286
-0.00575176
-0.0058937
-0.00605934
-0.00603191
-0.00535083
-0.00545202
-0.00635995
-0.00608495
-0.00587882
-0.00520184
-0.00542
-0.00536184
-0.00515494
-0.00554343
-0.00555957
-0.0059148
-0.00493358
-0.00518626
-0.00554336
-0.00586253
-0.00499299
-0.0052083
-0.00556558
-0.00662687
-0.00547791
-0.00617041
-0.00591405
-0.00726251
-0.0053866
-0.00516622
-0.00510029
-0.00585691
-0.00637264
-0.00585385
-0.00651957
-0.00553736
-0.00544224
-0.00583066
-0.00554636
-0.00571802
-0.00524735
-0.00662967
-0.00588635
-0.00676679
-0.00762523
-0.00709098
-0.00681221
-0.00629337
-0.00630193
-0.00718274
-0.00730217
-0.00779867
-0.00674376
0.0233191
0.0238243
0.0247802
0.023807
0.0246083
0.0233169
0.0243518
0.0232045
0.0237899
0.0247813
-0.00855776
-0.00837515
-0.00806227
-0.00811505
-0.00868145
-0.0086532
-0.00817903
-0.0083216
-0.00864396
-0.00802575
-0.00840989
-0.00821269
-0.00820016
-0.00863521
-0.00824892
-0.00851668
-0.00862651
-0.0089557
-0.00841541
-0.00931153
-0.00905453
-0.0087735
-0.00945916
-0.00829122
-0.00908572
-0.00824618
-0.00805019
-0.00905119
-0.00929318
-0.00812959
-0.00911727
-0.00920702
-0.00873504
-0.0084005
-0.00940469
-0.00870982
-0.00871446
0.0125273
0.0129285
0.0136223
0.0130478
0.0127225
0.0138422
0.010425
0.0120069
0.0122334
0.0118833
0.0111749
0.0132771
0.0127578
0.0132861
0.0124002
0.011966
-0.0130946
-0.0141639
-0.0131736
-0.0125782
-0.0127246
-0.0106196
-0.0111639
-0.0118509
-0.0127427
-0.0132956
-0.0094548
-0.0109967
-0.0120241
-0.010432
-0.0114517
-0.00953711
-0.00920616
-0.00921396
-0.0102535
-0.0103934
-0.0110165
-0.00930285
-0.00888649
-0.00859007
-0.00975655
0.0133921
0.0123887
0.012021
0.0120885
0.0121583
0.0106592
0.0103272
0.00974045
0.00978524
0.010353
0.0104915
0.00956977
0.0113671
0.010451
0.012165
0.0122679
0.0102942
0.0114213
0.0110372
-0.0082263
-0.00824126
-0.00880874
-0.00820528
-0.00969463
-0.00843526
-0.00799682
-0.00858526
-0.00867608
-0.00824358
-0.00812321
-0.00887377
-0.0090275
-0.00953133
-0.00899969
-0.00837746
-0.00819932
-0.00916073
-0.00889692
-0.00569546
-0.00707285
-0.00630711
-0.00595057
-0.00589671
-0.00643127
-0.00585171
-0.00548049
-0.00653487
-0.00626903
-0.00632201
-0.00592832
-0.0064382
-0.00627138
-0.00659259
-0.00662074
0.0227331
0.0233059
0.0226507
0.0224375
0.0237268
0.0245932
0.0243025
0.0234166
0.0234667
0.0242944
0.0244591
0.0235475
0.0243574
0.0249146
0.0255686
0.0250227
-0.0107831
-0.0125207
-0.00893398
-0.00864867
-0.0140911
-0.0169566
-0.00586107
-0.00690231
-0.00968396
-0.0123098
-0.00908449
-0.0096808
-0.011194
-0.0167728
-0.0150458
-0.00740208
-0.0125486
-0.00942256
-0.0130718
-0.0154398
0.05906
0.0531133
0.0487614
0.0484242
0.0575354
0.0588389
0.0523487
0.0571549
0.0513353
0.053329
0.05091
0.0513403
0.0481669
0.0480323
0.0537489
0.0214213
0.0201146
0.0247401
0.0264361
0.0242772
0.021205
0.0265612
0.0231172
0.0255664
0.0288286
0.0277748
0.0290041
0.0307255
0.0285494
-0.013678
-0.0144159
-0.0139641
-0.0147153
-0.0128215
-0.0130844
-0.0114588
-0.0103259
-0.0126573
-0.0126031
-0.010785
-0.0103191
-0.0131065
-0.0113921
-0.0110563
-0.0116917
-0.00484825
-0.00457581
-0.00461066
-0.00477628
-0.00458528
-0.00487448
-0.00450192
-0.00483308
-0.00501099
-0.00438438
-0.00444029
-0.00438333
-0.0049411
-0.00476486
-0.00444176
-0.00463998
-0.00458868
-0.0049028
-0.00471703
-0.0093217
-0.00932547
-0.00894314
-0.00971006
-0.00984321
-0.00967648
-0.00898454
-0.00977623
-0.0096639
-0.00819728
-0.00883962
-0.00868677
-0.0091205
-0.00881696
-0.00998686
-0.00965723
-0.00843793
-0.00885391
-0.00859049
-0.0086932
-0.00834654
-0.00841855
-0.00887918
-0.00834737
-0.00846323
0.0314935
0.0306745
0.0307405
0.031176
0.0313463
0.0309647
0.0307507
0.0307809
0.0314877
0.0312893
0.0313453
0.0310996
0.0311691
0.0309512
0.0312637
0.0313275
0.0313589
0.0311554
0.0308079
0.0314221
-0.00595412
-0.00676956
-0.00589246
-0.00641578
-0.00589753
-0.00557735
-0.00573188
-0.00650977
-0.0055108
-0.00582286
-0.00603408
-0.00621973
-0.00395393
-0.00404314
-0.00366255
-0.00352488
-0.00334745
-0.00401663
-0.00401547
-0.00414401
-0.0039251
-0.00350752
-0.0035016
-0.00380893
-0.00382732
-0.00349357
-0.00362286
-0.00356349
-0.0037395
-0.00359662
-0.00257409
-0.00239284
-0.00257431
-0.00240149
-0.00253874
-0.00277488
-0.00286628
-0.00298444
-0.00309009
-0.00242145
-0.0028516
-0.00249523
-0.0030901
-0.00287996
-0.00269827
-0.00257944
-0.00310564
-0.00275813
-0.00251109
-0.00200636
-0.00205009
-0.00228212
-0.0015069
-0.00191521
-0.00178977
-0.00164091
-0.00238692
-0.00204933
-0.00263331
-0.00263231
-0.00182243
-0.00184033
-0.00181246
-0.00256599
-0.00260156
-0.00488072
-0.00492539
-0.0053453
-0.00511505
-0.00497593
-0.00464903
-0.00467636
-0.00530136
-0.00530379
-0.00869828
-0.00845531
-0.00852188
-0.00868531
-0.00879896
-0.00881947
-0.0086466
-0.00892638
-0.00861079
-0.00848745
-0.00879776
-0.00860048
-0.00374374
-0.00357478
-0.00373337
-0.00372961
-0.00366736
-0.0038787
-0.00382748
-0.00398456
-0.00395376
-0.0037847
-0.00424663
-0.00419561
-0.00413563
-0.00423722
-0.00406225
-0.00421232
0.0319682
0.0321846
0.0318985
0.0316418
0.0313012
0.0313889
0.0309009
0.0308427
0.0311101
0.0316391
-0.00659461
-0.00634802
-0.00661327
-0.00637383
-0.00670371
-0.00658722
-0.00685995
-0.00682509
-0.00697755
-0.00699006
-0.00673857
-0.00654181
-0.00677802
-0.00716461
-0.00707032
-0.0068558
-0.00677157
-0.00673316
-0.00468072
-0.00495627
-0.00459205
-0.0046644
-0.00460843
-0.0045947
-0.00481243
-0.00462523
-0.00476876
-0.00517523
-0.00493093
-0.00499078
-0.00475327
-0.00493563
-0.00454157
-0.00462845
-0.00481442
-0.00461971
0.00963555
0.00901536
0.00842348
0.00940999
0.00760042
0.00702035
0.0100524
0.00951652
0.00818888
0.00973569
0.00875371
0.00782913
0.00861307
0.0086505
0.0317414
0.0316386
0.0315218
0.0313472
0.0317937
0.0313916
0.0312118
0.0312457
0.0315505
0.0313691
0.0315357
0.0316599
0.0312385
0.0312039
0.031093
0.0311355
0.031512
0.031308
0.0314515
0.0312216
0.0441753
0.042821
0.0359656
0.0390629
0.0286048
0.0329551
0.0184342
0.0342005
0.0341379
0.0315096
0.0372551
0.0274031
0.0390773
0.0442407
0.0400211
0.0475358
0.0291225
0.0403782
0.0358833
-0.0074271
-0.00785344
-0.00439167
-0.00295033
-0.00882301
-0.0108472
-0.0103095
-0.0124773
-0.00402379
-0.00408127
-0.0143699
-0.011028
-0.00596815
-0.010371
-0.0115586
-0.00684355
-0.00715309
-0.0116401
-0.00899745
-0.00870961
-0.000685789
-0.00130048
-0.00121055
-0.00122112
-0.00158775
-0.000788497
-0.00206566
-0.00129667
-0.00140943
-0.00144701
-0.00138473
-0.00129934
-0.00201518
-0.00100492
-0.00205444
-0.00209769
-0.00182052
-0.00183923
-0.000982289
-0.0129083
-0.012554
-0.0130971
-0.0127305
-0.0134421
-0.0142417
-0.0119927
-0.0123122
-0.012842
-0.0104395
-0.0118918
-0.0120622
-0.0121271
-0.0125201
-0.0124493
-0.0128352
0.0333407
0.0332913
0.0331582
0.0332346
0.0335079
0.0335254
0.0334021
0.0334311
0.0332411
0.0331049
0.0336258
0.0334018
0.033566
0.0335605
0.0331839
0.0331069
0.0332753
0.0334465
0.0335776
0.0331718
0.000723295
0.000571567
0.00113834
0.00155861
-0.00139762
-0.00148458
-0.00192005
-0.00278421
-0.00067056
0.000733654
0.0011131
-0.00140158
-0.00174959
-0.00228156
-0.00301645
-0.00289891
-0.000560726
-0.0023949
-0.00214351
-0.00107699
0.0335572
0.0334555
0.033539
0.033582
0.0335713
0.0335837
0.0335057
0.0336397
0.0337018
0.0337057
0.0337713
0.0334852
0.0336554
0.0336164
0.0337304
0.0337121
0.0336011
-0.00450229
-0.00452935
-0.00458806
-0.00487197
-0.0048148
-0.00457516
-0.00433516
-0.00459866
-0.00472922
-0.00504691
-0.0043471
-0.00393159
0.0316942
0.0315081
0.0320537
0.0320547
0.0318149
0.0317569
0.0314265
0.0316399
0.0318535
0.0320206
0.0320595
0.0316899
0.0315372
0.0316535
0.0314487
0.0316524
0.0314514
0.0317122
0.0317787
0.0314394
0.0316804
0.0253585
0.0249224
0.0250196
0.0254335
0.0254643
0.02463
0.0250114
0.0266473
0.0268132
0.0265983
0.025917
0.0255536
0.0251965
0.0251388
0.0251573
0.0258502
0.025732
0.0257449
0.0102739
0.0105324
0.0106171
0.0102004
0.0104617
0.0111684
0.0108107
0.0108526
0.0105955
0.0117574
0.0115889
0.0118353
0.0116667
0.0107338
0.0104623
0.0515429
0.0464713
0.0406384
0.0420564
0.048393
0.0465033
0.0579756
0.0433307
0.0501803
0.0450754
0.0575303
0.0573431
0.053061
0.0463111
-0.000107833
0.000232749
-0.000376465
-0.000969037
-0.000789231
-0.00112236
-0.000153063
-0.000274837
-0.000557709
-0.000237403
-0.00106193
-0.000607034
-0.00027563
0.000225972
1.84837e-05
-0.000511955
0.0271627
0.0251068
0.0267478
0.0249475
0.024611
0.0250013
0.0253224
0.0253758
0.0262321
0.0266346
0.0290934
0.0285834
0.0276
0.0299196
0.0305055
0.0279214
0.0289525
0.0328654
0.0328293
0.0324307
0.0325273
0.032633
0.0326805
0.0329011
0.0329364
0.0323995
0.0325142
0.0328476
0.032878
0.0328323
0.0327149
0.0326697
0.0328359
0.0326449
-0.00936875
-0.00719308
-0.00725791
-0.0102487
-0.00633383
-0.0113902
-0.0165742
-0.00647987
-0.0090545
-0.00991614
-0.0090444
-0.00850384
-0.00937478
-0.00685685
-0.0155543
-0.0155471
-0.0128454
-0.013713
0.0201381
0.0197963
0.0213881
0.0210604
0.0203722
0.0190684
0.0194777
0.0210131
0.0214827
0.0210913
0.0208504
0.0211491
0.0194931
0.0192443
0.0186075
0.0203806
0.0192767
0.0198953
0.0188575
0.020355
0.0196597
0.0194278
-0.00418973
-0.00465731
-0.00445464
-0.00424371
-0.00346248
-0.00368117
-0.00242668
-0.00271593
-0.00357843
-0.0045091
-0.00412328
-0.00378379
-0.00276513
-0.00275399
-0.00278557
-0.00278665
-0.00352979
-0.0040531
-0.00349764
-0.00351921
-0.00391941
-0.00379213
-0.0036193
-0.00387654
-0.00414384
-0.00390348
-0.00404722
-0.00334603
-0.00339093
-0.00331998
-0.00344142
-0.0034335
-0.00406444
-0.00397659
-0.00398192
-0.00372844
-0.00336047
-0.00381607
-0.00444808
-0.0042897
-0.00434805
-0.00451112
-0.00473265
-0.00476537
-0.00428148
-0.00463042
-0.00429953
-0.00443836
-0.00419285
-0.00463971
-0.00387792
-0.00419521
-0.00399701
-0.00469695
-0.00434623
-0.00399882
-0.00470031
-0.00670563
-0.007238
-0.00712713
-0.00856471
-0.00559941
-0.00444869
-0.0075336
-0.00735551
-0.002788
-0.00341416
-0.00117041
-0.00430351
-0.0020102
-0.00458163
-0.00410263
-0.00589796
-0.0055081
-0.00406836
-0.00358555
-0.000387549
-0.00255977
-0.00100023
0.00852899
0.00690042
0.00623735
0.00672655
0.00733831
0.00891956
0.00880347
0.00773672
0.00701728
0.00617065
0.0065792
0.00673757
0.00636507
0.00740612
0.00726855
0.00834042
0.00712677
0.00639006
0.00704964
-0.00691023
-0.00647827
-0.00669477
-0.0067286
-0.00684869
-0.00690404
-0.0070773
-0.00737745
-0.00690586
-0.00746149
-0.00697127
-0.00682126
-0.00685296
-0.0067865
-0.00684025
-0.00681663
-0.00685631
-0.00298913
-0.00319578
-0.00466795
-0.00414841
-0.00394069
-0.00420946
-0.00444073
-0.00411366
-0.00349747
-0.00433256
-0.00369797
-0.0043501
-0.00400951
-0.00406706
-0.00333577
-0.00402299
-0.00420591
-0.00444849
-0.00312811
-0.00380534
-0.00300298
-0.00404087
-0.00369393
-0.00392346
-0.00401975
-0.00266273
-0.00381462
-0.00372763
-0.00345764
-0.00318473
-0.0042315
-0.000173872
-0.000410192
-0.000174362
-2.0757e-05
-0.000110011
-0.000204006
-0.000306675
-0.000295015
3.05328e-05
-0.000159051
-0.00039222
-0.000334153
-0.000506908
-0.000522241
-0.000133171
-0.000263573
-0.000600498
-0.000489704
-0.000483518
-0.000501365
-0.000212252
-3.96498e-05
-0.0007582
-7.32866e-05
-0.000288489
-0.000286855
-0.00055964
-0.000700407
-0.00033127
-0.000369029
-0.00022715
6.6812e-05
1.82828e-05
-0.000245783
-0.000580879
-0.000235413
-0.000180285
-0.000570493
-4.92855e-05
-0.000240483
-0.0109968
-0.012067
-0.0150851
-0.015707
-0.0155971
-0.0162863
-0.0119111
-0.0130766
-0.013692
-0.00987593
-0.0118357
-0.0125871
-0.0147194
-0.0139759
-0.0138437
-0.0124582
-0.0122644
0.00134788
0.001356
0.00095823
0.00225188
0.00160106
0.000724415
0.000455699
0.0023191
0.00202687
0.00106481
-0.0079484
-0.00791838
-0.00819832
-0.00841828
-0.00784197
-0.00782375
-0.00806954
-0.00840521
-0.00848562
-0.00823845
-0.00810139
-0.00795323
-0.00782636
-0.00779163
-0.00757672
-0.00799394
-0.00790308
-0.00802972
-0.00680445
-0.00678734
-0.00690317
-0.00656577
-0.00700701
-0.00664328
-0.00675107
-0.00657287
-0.00627763
-0.00634185
-0.00701979
-0.00713425
-0.0067968
-0.000502153
-0.000245969
-0.000691482
-0.000347374
-0.000855783
-0.00111595
-0.000768743
-0.000172634
-0.000112386
-0.00057758
-0.000902432
-0.000789462
-0.00012728
-8.28222e-05
-0.00752791
-0.00749785
-0.00782589
-0.00765857
-0.00755785
-0.00751558
-0.00772083
-0.00771181
-0.00772629
-0.00768237
-0.00773135
-0.00791153
-0.00771166
-0.00752525
-0.00813555
-0.0186757
-0.0179633
-0.0176649
-0.0176217
-0.0169399
-0.0165298
-0.0195496
-0.0188233
-0.0186805
-0.0190605
-0.019726
-0.0195745
-0.0173963
-0.0173853
-0.0178952
-0.017861
-0.0181469
-0.0190539
0.0323866
0.0323827
0.0326412
0.0319831
0.0320985
0.0320601
0.0321688
0.0319881
0.0323116
0.0322883
-0.00704102
-0.00709963
-0.00708976
-0.00732553
-0.00699478
-0.00730241
-0.00696467
-0.00705268
-0.00685803
-0.00694081
-0.00697474
-0.00725612
-0.0073265
-0.00709304
-0.00734484
-0.00696362
-0.00708582
-0.00712994
-0.00693343
-0.00710394
-0.00717039
-0.00711348
-0.00380602
-0.00367371
-0.00383848
-0.0036751
-0.003417
-0.00344732
-0.00329343
-0.00339692
-0.00310439
-0.00325509
-0.00280458
-0.00287622
-0.00292746
-0.00300141
-0.00278014
-0.00270885
-0.00268594
-0.00297878
0.0340611
0.0350276
0.0363012
0.0349964
0.0335566
0.0360456
0.0342311
0.0351767
0.0314831
0.0333348
0.0349112
0.0320918
0.0324263
0.0311852
0.029902
0.0330057
0.030805
0.0296752
0.0307518
0.034257
0.032102
0.0311373
0.0285528
0.0338674
0.0345979
0.0360148
0.0354596
0.0399257
0.0391382
0.0363318
0.0389531
0.0321162
0.0314027
0.0397658
0.0408005
0.0373552
0.0401016
0.0334436
0.0335575
0.0336167
0.0334296
0.0335319
0.0334278
0.0336007
0.0335575
0.033408
0.0335308
0.0333564
0.0333948
0.0336084
0.0335504
0.0335515
0.0336042
0.0329921
0.0288612
0.028445
0.0308185
0.0319146
0.0337443
0.031648
0.0317264
0.0280634
0.0273914
0.0321356
0.0299291
0.0315218
0.0287829
0.0308994
0.0286074
0.0283537
0.0297059
0.0302896
0.0291042
0.0297872
0.030944
0.0307936
0.0300427
0.0293156
0.0309508
0.0313705
0.0308827
0.0254721
0.0250007
0.0272614
0.0286106
0.016718
0.0156948
0.0258277
0.025647
0.016456
0.0186697
0.0212464
0.0211149
0.0228735
0.0203566
0.0178612
0.0157734
0.0312474
0.0304027
0.0307631
0.0312765
0.0304781
0.0318015
0.0313983
0.0306005
0.0306207
0.0334731
0.0330401
0.0327243
0.0321723
0.0310469
0.0321803
0.0316168
0.0326824
0.0320679
0.0314082
0.0329619
0.0109628
0.0128038
0.00748334
0.00452743
0.00569348
0.00858847
0.015961
0.00759296
0.0114623
0.011431
0.00512326
0.0101429
0.0109022
0.00777315
0.0107375
0.017404
0.0174811
0.0159131
0.0139582
0.01229
0.0212652
0.0183874
0.0184644
0.0156488
0.0196134
0.0196782
0.0197312
0.0170708
0.0156286
0.01668
0.0168027
0.0175883
0.0179062
0.0327888
0.032831
0.0326515
0.0325458
0.033197
0.0331669
0.0327568
0.0325991
0.0333437
0.0333559
0.0328087
0.0330888
0.0333381
0.0333061
0.0332064
-0.00903351
-0.00878877
-0.00927708
-0.00922436
-0.00972291
-0.00868418
-0.00856017
-0.0104059
-0.0100225
0.0349961
0.0341222
0.0331093
0.0330485
0.0337962
0.0331603
0.0354007
0.0328626
0.0366224
0.035174
0.0329615
0.0348202
0.0354638
0.0358352
0.036294
0.0320714
0.0323789
0.0341623
0.0363396
0.0350089
0.0325693
0.0334479
0.00738302
0.00808763
0.00737614
0.00552096
0.00652676
0.00739836
0.0042401
0.00547625
0.00578965
0.00365765
0.00486963
0.00295879
0.00371394
0.0026006
0.00216036
0.00302526
0.00425107
0.00580112
0.00184585
0.00470143
0.0315786
0.0298743
0.0346384
0.0300532
0.0319629
0.0383333
0.0355773
0.0317753
0.0355002
0.0311686
0.0336414
0.0395277
0.0373563
0.0380657
0.0414688
0.0347871
0.034001
0.0322853
0.0367666
0.0307596
0.0339512
0.0316346
0.0356001
0.0399882
0.0408828
0.0390304
-0.00756833
-0.00852819
-0.0081975
-0.00760372
-0.00785709
-0.00858021
-0.00796626
-0.00762958
-0.00909436
-0.00765068
-0.00795413
-0.00838931
-0.00782334
-0.00734655
-0.00725338
-0.00777088
-0.00762811
-0.00835149
-0.00774221
-0.00717138
-0.00718844
-0.0072704
-0.00726697
-0.00785513
-0.00734772
-0.00774236
-0.00431132
-0.00406316
-0.0047511
-0.00522775
-0.00421857
-0.00445387
-0.00413064
-0.00295586
-0.00486058
-0.00227987
-0.00483213
-0.00370856
-0.0032145
-0.00392895
-0.00484908
-0.00479223
-0.00418309
-0.00400177
0.0133008
0.012788
0.00930837
0.011377
0.00997865
0.0079903
0.00471235
0.00951115
0.00977388
0.00731557
0.002355
0.00618085
0.00758036
0.0288998
0.0296849
0.0300277
0.0286544
0.0303146
0.0300945
0.0304767
0.0296065
0.0297421
0.0287184
0.0289164
0.0308032
0.0301617
-0.0104967
-0.0103111
-0.0112284
-0.0106667
-0.0106701
-0.0112218
-0.0125014
-0.0119768
-0.0134918
-0.0114008
-0.0116071
-0.0111946
-0.0126095
-0.009289
-0.00798513
-0.00785491
-0.00830914
-0.0085486
-0.00897144
-0.00891385
-0.00920123
-0.00800604
-0.00807758
-0.00858927
-0.00807412
-0.00771465
-0.0082611
-0.00818204
-0.00746385
-0.0072109
-0.00748203
-0.00752646
-0.00764875
-0.00734344
-0.00727739
-0.007276
-0.00714984
-0.00747538
-0.00749474
-0.00767568
-0.00763859
-0.00748331
-0.00728847
-0.00739993
-0.00753565
-0.00719366
-0.00724045
-0.00711235
-0.00714619
-0.00704066
-0.0070551
-0.00741165
-0.00714476
-0.00705629
-0.00721432
-0.00719136
-0.0071765
-0.00772018
-0.00377132
-0.00513335
-0.0052141
-0.00394845
-0.00481099
-0.00516322
-0.00570134
-0.00363962
-0.00375212
-0.0043683
-0.00430239
0.0263913
0.0280112
0.0270912
0.0282042
0.0274532
0.0283744
0.0274752
0.0267111
0.027798
0.0269141
0.0283407
0.0260843
0.0276309
0.0364738
0.0393225
0.041611
0.0499455
0.0477165
0.0362129
0.0532787
0.0524899
0.0396017
0.0453084
0.0378152
0.0400505
0.0481622
0.0520738
0.0548996
0.0433401
0.0451919
0.0417831
0.0515496
0.0495132
0.0477338
0.0447237
0.0372148
0.0372039
0.0371949
0.0358942
0.035598
0.0343337
0.0347307
0.0352896
0.0345155
0.0335465
0.0336299
0.0233163
0.0226506
0.0223232
0.0219257
0.0244537
0.0239399
0.0221766
0.0236313
0.0227868
0.0218474
0.0210618
0.0213588
0.0231246
0.0245276
0.0247137
0.0218576
0.0213062
0.0236768
0.0207345
0.0349195
0.0352107
0.0350861
0.0350788
0.0358243
0.0356581
0.0354394
0.0352595
0.0352576
0.0356608
0.0364236
0.0361186
0.036556
-0.00517587
-0.00110715
0.00125851
-0.00259801
-0.00055304
0.00301198
0.00280895
0.00358769
0.00430258
-0.000256482
0.00207323
-0.00527978
-0.00851531
-0.000228306
0.00310425
-0.00325704
-0.00104915
-0.00899823
-0.00425226
-0.00979068
-0.00287308
-0.00726077
-0.00717809
-0.00718691
-0.007326
-0.00696548
-0.0070684
-0.00724179
-0.0076067
-0.00708356
-0.00690316
-0.00749578
-0.00727382
-0.00705538
-0.00706555
-0.00704756
-0.00712777
-0.00683102
-0.00703608
-0.00923209
-0.0106981
-0.00824362
-0.00833686
-0.0079479
-0.00975386
-0.00876245
-0.00861511
-0.00822456
-0.00870292
-0.0100061
-0.0120375
-0.00980077
-0.00963171
-0.00804971
-0.00625653
-0.00776533
-0.00735467
-0.00671813
-0.00821897
-0.00992516
-0.00751977
-0.00595556
-0.00682228
-0.0062824
-0.00811099
-0.00682527
-0.00245877
-0.00284996
-0.00312295
-0.00299111
-0.00328891
-0.0115587
-0.0137266
-0.0122773
-0.0136404
-0.0182157
-0.0114837
-0.0153151
-0.0188187
-0.0181912
-0.0225855
-0.0241781
-0.0206625
-0.0200298
-0.020895
-0.0158734
-0.00158918
-0.00175062
-0.0017239
-0.00277791
-0.00237669
-0.00201839
-0.00218313
-0.00214649
-0.00233211
-0.00149655
-0.000910618
-0.00250131
-0.00237189
-0.00164416
-0.000537446
-0.00140543
-0.00234283
-0.00183625
0.0197312
0.0177904
0.0139185
0.0208346
0.0083059
-0.00196205
0.020055
0.0105042
0.0190182
0.0130783
0.0145579
-0.0147931
-0.00663965
-0.0249612
0.00870385
0.00819697
0.00506958
-0.00419564
0.00243345
0.00717564
-0.0169139
-0.0164952
-0.0165657
-0.015043
-0.0154345
-0.0142909
-0.0141615
-0.0139752
-0.0153759
-0.0156037
-0.0135829
-0.0142559
-0.0147656
-0.0138501
-0.00985618
-0.00812341
-0.00891267
-0.0106845
-0.00624293
-0.0069599
-0.00843437
-0.0108009
-0.00824317
-0.00784893
-0.010687
-0.00944383
-0.00549042
-0.00619061
-0.00543881
-0.00603778
-0.00609954
-0.00638695
-0.00419971
-0.0052652
-0.0044067
-0.00706255
-0.0105374
-0.00570698
-0.0116733
-0.00990261
-0.0117395
-0.0110897
-0.00116716
-0.00182555
-0.00150168
-0.00358068
-0.00597955
-0.00656741
-0.00845353
-0.00853983
-0.00291539
-0.00604494
-0.00339864
-0.00357818
0.000625948
-0.000999096
-0.0013198
-0.00109688
0.00246304
0.00218208
0.00121626
0.00421312
0.00425781
0.000697577
-0.00159243
0.00119635
0.00230965
0.0039436
0.00452038
-1.42133e-05
0.00235615
0.00207535
0.000606168
0.001741
0.0145485
0.0151766
0.0122482
0.0126827
0.0152269