/*--------------------------------*- C++ -*----------------------------------*\
  =========                 |
  \\      /  F ield         | OpenFOAM: The Open Source CFD Toolbox
   \\    /   O peration     | Website:  https://openfoam.org
    \\  /    A nd           | Version:  10
     \\/     M anipulation  |
\*---------------------------------------------------------------------------*/
FoamFile
{
    format      ascii;
    class       volScalarField;
    location    "20";
    object      k;
}
// * * * * * * * * * * * * * * * * * * * * * * * * * * * * * * * * * * * * * //

dimensions      [0 2 -2 0 0 0 0];

internalField   nonuniform List<scalar> 
75457
(
1.9221
2.18821
1.32197
0.674136
1.42685
1.52325
1.71332
1.60623
0.492614
0.48749
0.446129
1.25357
1.07365
0.521952
0.0893037
0.0719472
0.0164179
0.0517863
0.0624464
0.0111187
0.0295814
0.0203128
0.0831334
0.0847782
0.0507662
0.103665
0.107006
0.127868
0.108369
0.179338
0.110343
0.157022
0.152595
0.0666939
0.0564532
0.0756189
0.0683122
0.155276
0.139919
0.0685182
0.0707805
0.0638674
0.0685185
0.0709535
0.123342
0.0283978
0.0161057
0.0603481
0.608786
0.194363
0.387562
0.542702
1.28209
0.384094
0.22439
0.243806
0.989304
0.952632
0.815248
1.35718
1.10011
0.680707
0.45216
0.318093
0.0562139
0.328378
0.0865303
0.375075
0.484086
0.907763
0.463619
0.990204
0.362736
0.0288522
0.453177
0.12957
0.137348
2.41961
2.12097
1.77747
1.81382
1.95491
2.19174
1.95979
1.26413
1.28718
1.49259
1.68914
2.18802
1.48067
1.91627
1.79012
1.64074
1.59014
0.915881
0.333702
0.361759
0.397353
1.74401
0.844717
0.80442
1.25139
0.118625
0.00358827
0.0401541
0.0557584
0.186974
0.0406955
1.07592
0.309163
0.374424
0.781991
0.877254
0.695227
0.073814
0.834636
1.28687
0.458017
0.448488
1.54185
0.0189039
0.0721738
0.076918
0.186116
0.44415
0.2707
0.865118
0.440424
0.847342
0.0928543
0.169749
0.905413
0.275694
0.588824
0.519361
0.871212
0.361371
0.744452
0.71297
1.3093
0.13419
0.265586
0.461893
0.15099
0.188405
0.652616
0.589271
0.525941
1.22606
0.701647
1.81747
1.11086
0.281462
0.197501
0.61069
0.972377
0.667959
1.25023
0.413534
0.875103
1.25991
0.312296
1.0001
0.00522922
0.00544425
0.00562772
0.00547053
0.0055836
0.00503421
0.00501163
0.00520139
0.00556144
0.00511479
0.00532724
0.00518015
0.00505568
0.686511
0.730662
0.880336
1.12654
0.979674
1.20614
0.699954
0.913827
1.43739
0.526999
0.728481
0.858346
1.3551
2.82137
0.957827
0.59627
0.831563
0.925679
0.641881
1.34368
0.106461
0.247332
0.189233
0.140357
0.0920183
0.567887
0.713789
0.737762
0.470538
0.51824
0.88925
1.53118
1.48614
1.4974
1.2007
1.20411
1.56656
1.72801
1.07165
1.03398
1.79022
1.15095
1.8992
1.8653
1.68745
0.91082
0.942711
1.29047
0.885069
0.953083
1.82645
0.88635
0.834227
0.948934
0.232408
0.223127
1.24913
0.654691
0.872051
0.766952
1.13822
0.404196
0.437031
0.465793
0.47445
1.0363
1.20959
0.903985
1.2286
0.956932
0.729646
0.878824
1.14497
1.59031
1.08767
1.24228
0.696505
1.1127
0.725149
0.791036
0.410491
0.223872
0.321213
0.0433067
0.11771
0.140481
0.424576
0.34964
0.930798
1.59729
1.11167
2.0818
1.45095
1.41782
1.62794
1.35997
0.845772
0.877734
0.906949
0.80266
0.990129
0.888536
1.18421
0.85031
1.05642
1.02137
0.971015
0.916879
0.767233
0.842294
0.683372
0.274478
0.311156
0.493023
0.407786
0.467921
0.714502
0.951123
0.971661
1.2255
1.05389
0.880755
0.863719
1.05677
0.909711
0.367151
0.606043
0.468044
0.457382
0.518234
0.502239
0.470128
0.688964
0.562123
0.647814
0.856019
0.51018
0.736556
0.726222
0.957503
0.34108
0.61854
0.427124
0.113964
0.670276
0.345536
0.586611
0.308461
0.13864
0.509193
0.444106
0.462299
0.994181
1.10684
0.605979
0.576422
1.11332
1.28469
0.540869
0.562351
1.18338
1.11188
1.8746
1.09221
1.07801
1.70564
0.892795
0.914437
0.914192
0.568779
0.893713
0.91963
1.01151
1.23667
0.948719
0.462816
0.879828
0.599765
0.999273
1.1878
1.2437
2.14866
0.85861
0.741531
1.34724
1.46593
1.40917
1.40531
0.388097
0.373284
0.455154
0.476172
0.701087
0.58475
1.12546
0.607265
0.671496
0.915052
1.60836
1.12672
1.02447
0.959799
1.03606
0.958933
0.836684
0.587165
0.146739
0.280358
1.25161
1.20001
0.878858
1.08422
0.336153
0.296812
0.769155
0.00402124
0.00417384
0.00374712
0.00374005
0.00424585
0.00445211
0.00397115
0.00426441
0.00416957
0.00529574
0.00378594
0.00371355
0.00367165
0.00367269
0.00376898
0.0038231
0.00367228
0.00369965
0.00391696
0.00393697
0.00380598
0.00357255
0.00353738
0.00351854
0.00390654
0.00384098
0.00373542
0.00353544
0.0034781
0.00368893
0.0037295
0.00388485
0.00391311
0.00368982
0.00370909
0.0038203
0.00378254
0.00374463
0.00378487
0.00389092
0.00388584
0.00373305
0.00381736
0.00376054
0.00376506
0.00372467
0.00378386
0.00388391
0.00399282
0.00374904
0.00386805
0.00384927
0.00380746
0.195213
0.0701879
0.0737664
0.067385
0.0710581
0.160727
0.0644468
0.078236
0.0529994
0.187881
0.0516744
0.0532957
0.0562255
0.0617273
0.045153
0.16191
1.46616
0.932512
0.855885
0.929221
0.414437
0.434516
0.763236
0.739783
0.417204
0.411361
1.85229
1.46761
1.50517
0.967714
0.463676
0.113003
0.0128298
0.0185672
0.0780256
0.0762802
0.0472589
0.018093
0.0173807
0.0174185
0.022074
0.0136502
0.044724
0.073529
0.0721502
0.0814383
0.248877
0.0901682
0.0562214
0.0549681
0.00400045
0.00406279
0.00405195
0.00399882
0.00392755
0.00413951
0.00414926
0.00379021
0.00393577
0.00410997
0.00411188
0.00439421
0.00414937
0.00397716
0.00397249
0.00400708
0.00491417
0.00469665
0.00497595
0.00472599
0.00453353
0.00502678
0.00542612
0.00511497
0.00496196
0.00511429
0.00505456
0.00487851
0.00511721
0.0048744
0.00496967
0.00539081
0.00541409
0.00449437
0.00478309
0.00455531
0.00476166
0.00468278
0.00456193
0.00354269
0.00695793
0.00429746
0.00452362
0.00406741
0.004489
0.00430109
0.00444354
0.0042504
0.00427788
0.00358656
0.464878
0.379896
0.423714
0.508944
0.363885
0.536978
0.547041
0.604756
0.404839
0.401573
0.405321
0.531656
0.692006
0.497643
0.61736
0.408104
0.587086
0.628654
0.0541256
0.0531728
0.0624527
0.085018
0.0311985
0.0982413
0.0601355
0.0592604
0.061747
0.116771
0.06872
0.0647261
0.0645106
0.0407209
0.142482
0.131126
0.165854
0.0963698
0.174757
0.174188
0.193999
0.14056
0.121239
0.18668
0.191056
0.194499
0.140273
0.0837824
0.0896701
0.182223
0.110826
0.153348
0.00388669
0.00392374
0.00396331
0.0044577
0.00472165
0.00392904
0.00386465
0.00435673
0.00420735
0.00425962
0.00363449
0.00464676
0.300675
0.18572
0.417176
0.146224
0.358713
0.280746
0.287721
0.304614
0.37486
0.0874524
0.0619504
0.0710833
0.080576
0.0647234
0.0710933
0.0766095
0.0152211
0.0762653
0.0116125
0.0635275
0.178464
0.149812
0.220425
0.140978
0.111663
0.0682966
0.0461779
0.0223952
0.150527
0.0392626
0.0475478
0.0655875
0.00563206
0.00435598
0.040837
0.00866939
0.00158056
0.0572624
0.0426872
0.0133048
0.000499526
0.00215418
0.000841682
0.00204024
0.00303722
0.00279273
0.00522247
0.0568447
0.0510228
0.0514245
0.0163365
0.138639
0.111982
0.0732741
0.194692
0.106358
0.157927
0.120833
0.0629525
0.105023
0.0587651
0.17111
0.138831
0.116604
0.118296
0.31808
0.327206
0.265516
0.299717
0.281562
0.286585
0.202897
0.242553
0.307032
0.194759
0.201346
0.324009
0.226991
0.199642
0.223828
0.198235
0.199043
0.215329
0.199224
0.432146
0.491591
0.0227416
0.0872927
0.329285
0.168894
0.0364776
0.0717192
0.568409
0.374542
1.28263
1.28653
1.27987
1.30953
1.34893
1.43899
1.33541
1.39806
1.16085
1.12082
1.3166
1.46591
1.46646
1.44189
1.46335
1.4437
1.37944
1.17661
1.2419
1.18815
1.24507
0.0370962
0.0277755
0.0887152
0.0643836
0.0720211
0.0316967
0.0548177
0.0559397
0.0554404
0.165668
0.215559
0.275754
0.0278306
0.210999
0.38447
0.164432
0.272874
0.0288423
0.135164
0.223331
0.458935
0.127455
0.158462
0.674317
0.56143
0.143683
0.450531
0.254762
1.22862
1.27944
1.29824
1.36437
1.21629
1.32341
1.36067
1.34866
1.32959
1.3171
1.40019
1.33787
1.3949
0.0524567
0.0635873
0.0173058
0.0215736
0.0201998
0.0176894
0.0300111
0.0366358
0.115047
0.040515
0.0700225
0.0774666
0.0195044
0.0214803
0.0763576
0.0375993
0.072873
0.0702399
0.051013
0.0965408
0.116763
0.0429772
0.0715486
0.0237757
0.109198
0.0322447
0.0251515
0.129206
0.121609
0.0186565
0.0795457
0.0983665
0.0764107
0.0707228
0.127031
0.0290946
0.0536057
0.18241
0.104422
0.0432451
0.00522249
0.0129444
0.117426
0.203532
0.0776659
0.0819444
0.132866
0.18135
0.0770375
0.0936922
0.101578
0.0574332
0.0579966
0.115813
0.130428
0.177317
0.0627966
0.0642257
0.0948992
0.179948
0.0993889
0.0750228
0.109216
0.0797234
0.403907
0.378051
0.0313853
0.0663689
0.103985
0.14903
0.0659463
0.0784446
0.154925
0.336921
0.459684
0.36254
0.101386
0.13462
0.0675039
0.245017
0.174512
0.0321328
0.0308132
0.0246809
0.0273649
0.0298953
0.0234611
0.0199872
0.0231291
0.0218464
0.0279557
0.0291867
0.0186418
0.0286649
0.0299913
0.00382754
0.00375922
0.00390792
0.00394081
0.00394906
0.00385686
0.00402808
0.00391102
0.0042216
0.00433486
0.12577
0.0844897
0.133188
0.181623
0.0570061
0.0490599
0.170044
0.246739
0.067681
0.143868
0.14175
0.141557
0.169996
0.0496165
0.164099
0.141577
0.0336224
0.624297
0.682339
0.6369
1.06676
0.965835
0.763541
0.986697
0.919032
0.952084
1.02192
0.587287
0.588146
0.738902
0.656221
0.881477
0.919485
0.882552
0.613251
0.671099
0.693333
0.00249403
0.00372193
0.00364497
0.00223939
0.00483387
0.0281786
0.0325069
0.00537983
0.00376752
0.00340071
0.030878
0.0386583
0.00200362
0.0175808
0.0237546
0.0451581
1.93428
2.19152
2.51527
2.40879
1.80108
2.19105
1.72128
2.25615
2.84534
2.53623
1.90067
1.92312
2.20447
0.0912444
0.128169
0.121185
0.0787764
0.0675976
0.0734211
0.117635
0.0997298
0.0787015
0.082384
0.0468238
0.0789151
0.0403062
0.11642
0.094103
0.053498
0.121001
0.109063
0.0489472
0.0446278
0.043199
0.0524434
0.00144543
0.000232527
0.00257449
0.00161601
0.00154412
0.0257837
0.104641
0.00388614
0.0371145
0.249052
0.278613
0.147394
0.137012
0.169029
0.0442235
0.147972
0.192593
0.14675
0.051183
0.0500485
0.135617
0.0250592
0.0695396
0.0566103
0.0464706
0.0475494
0.0732696
0.0456106
1.09329
1.10595
1.26911
1.17446
1.10953
1.06447
1.15697
1.13547
1.24012
1.20248
1.25788
1.25137
1.28759
1.28264
1.28744
1.24756
0.0716713
0.165674
0.134994
0.0754911
0.0110198
0.0191524
0.0266533
0.0117128
0.0108032
0.0101741
0.0875736
0.058954
0.0188449
0.000347643
0.0309102
0.022858
1.16224
1.70332
1.12973
1.53954
1.33545
1.98926
0.495117
0.621572
0.461986
0.494277
0.509922
0.740042
1.45947
1.89342
1.25432
0.815762
1.01428
1.01835
0.744481
1.74536
0.0133055
0.00925438
0.00739739
0.00651299
0.00783953
0.00582234
0.00655462
0.00669081
0.00661936
0.0136807
0.0165931
0.008878
0.00872515
0.00588335
0.0154794
0.06437
0.0752407
0.126846
0.17402
0.241912
0.242715
0.306262
0.124165
0.420796
0.558948
0.490466
0.235494
0.634811
0.651955
0.0252268
0.0451201
0.0188755
0.0229049
0.020072
0.0318739
0.0133955
0.00692418
0.0332573
0.00765014
0.0172461
0.00706297
0.0108506
0.00676387
0.00550886
0.0058452
0.0748154
0.0810898
0.0644168
0.0649391
0.224422
0.232089
0.0434622
0.122481
0.117777
0.0522515
0.221415
0.177326
0.269043
0.166839
0.178821
0.239591
0.245589
0.286414
0.287917
0.0113162
0.0544235
0.0268739
0.0236413
0.0129202
0.118324
0.0342718
0.051266
0.0670826
0.0483117
0.0122502
0.0145532
0.0220614
0.0153124
0.0734762
0.0575066
0.0472691
0.106634
0.0743568
0.0900586
0.0396432
0.0578867
0.113596
0.0711526
0.0640903
0.0160209
0.0118972
0.0105514
0.0783313
0.004481
0.00648311
0.0255266
0.0230208
0.0126998
0.0110349
0.0261512
0.0290106
0.0130589
0.0250208
0.00909004
0.00730951
0.00731731
0.00808329
0.0309284
0.0085586
0.0231045
0.0207329
0.0165732
0.0311958
0.0244571
0.0251365
0.0609229
0.0231246
0.0651875
0.0717568
0.0558288
0.0393327
0.528941
1.15838
1.69034
0.892743
1.30597
0.649876
0.809865
1.2274
1.42333
0.475656
0.955255
1.12586
1.63539
0.642413
1.11205
0.306861
0.822294
0.458945
0.413732
0.758974
0.908451
0.700517
0.40579
0.36222
0.358265
1.25627
1.25082
1.26925
1.41749
0.353683
0.36226
0.349059
0.315612
0.342151
0.627737
0.663522
0.574285
0.0417803
0.0832106
0.0244859
0.0408313
0.0224307
0.0208193
0.0165426
0.0250059
0.0203285
0.0197487
0.0337516
0.0177773
0.0190379
0.0187436
0.018468
0.013697
1.12012
1.22953
1.07703
1.172
0.463582
0.728853
1.2549
0.700631
0.605868
0.865132
0.799978
0.92529
0.207147
1.19821
1.37
0.985507
1.14878
0.298536
0.0717449
0.943
0.067883
0.992839
1.2798
0.409707
0.772336
0.299698
1.14398
1.47259
1.07623
0.123617
0.352475
0.450072
1.62294
0.369286
0.746773
0.833962
1.36541
0.383074
0.577737
0.566234
1.08169
0.318512
0.480981
1.5479
0.360652
0.721971
0.385237
0.932459
1.38859
0.749198
0.444958
1.10115
1.21538
0.368064
0.228348
0.867003
0.229976
0.82808
1.37598
0.81956
0.217828
0.25987
1.26685
0.835831
0.26607
0.237534
0.331595
0.254209
0.108845
0.171708
0.136099
0.267348
0.281605
0.0712284
0.0858612
0.0905438
0.216022
0.32591
0.137197
0.167798
0.0865409
0.224109
0.241387
0.0838342
0.0789355
0.0446284
0.0376515
0.041501
0.0471216
0.121304
0.0689342
0.0448583
0.067203
0.0490514
0.414928
0.708692
0.281947
0.0108513
0.0104584
0.0100603
0.0103643
0.011168
0.00934341
0.0333886
0.0390613
0.0611958
0.0314953
0.00160889
0.0128919
0.0141785
0.00849707
0.0274305
0.0265661
0.078346
0.0303961
0.00657759
0.00738404
0.780289
0.781798
0.733664
0.641112
0.952343
0.935758
0.95041
0.773119
0.57798
0.702547
0.742229
0.750866
0.711027
0.723779
0.631223
0.70819
0.595034
0.577085
0.58162
0.0268347
0.0137006
0.020606
0.0151616
0.56543
0.903066
0.239292
0.400205
0.0605136
0.0166614
0.391201
0.0756608
0.0299534
0.221204
0.686303
0.261506
0.138657
0.332258
0.141734
0.345734
0.132106
0.120355
0.219735
0.133792
0.216331
0.818466
1.03659
0.52599
0.534313
0.40409
0.308347
0.212915
0.354128
0.288751
0.626066
0.279955
0.180087
0.188281
0.278616
1.31597
1.2938
1.50041
1.60977
1.46277
1.71648
1.0615
1.17174
1.1275
1.09806
1.09318
1.5287
1.40462
1.06509
1.50375
1.67097
0.0235299
0.0222428
0.0247526
0.029916
0.0303881
0.0269081
0.050369
0.0418813
0.044831
0.0276923
0.0314439
0.0300565
0.0454845
0.0351456
0.0358006
0.0345141
0.0417246
0.0391459
0.0394251
0.0304046
0.729821
1.00847
0.602373
1.01449
0.462073
0.525218
0.186185
0.327074
1.12297
0.657231
1.13614
0.942728
0.243263
0.233707
1.15345
0.842919
1.1301
0.736245
1.42202
0.484314
0.0219345
0.0445844
0.0551436
0.054954
0.0372837
0.0281726
0.0250218
0.039122
0.049029
0.0417596
0.0426142
0.0380392
0.0658475
0.0316437
0.0840515
0.0765715
0.0784688
0.504089
1.09753
0.995557
1.91022
0.558746
0.64598
0.81596
0.875233
2.91052
0.832194
0.485889
1.611
0.0119941
0.0104982
0.00903361
0.00412005
0.0114659
0.00834705
0.00770103
0.00523993
0.00498991
0.0136219
0.00885063
0.00472629
0.0570486
0.000276767
0.0196465
0.00104404
0.0309817
0.0974793
0.00110982
0.0564198
0.080746
0.164072
0.148268
0.00688956
0.0117436
0.247451
0.176868
0.262499
0.00911817
0.0210359
0.0351168
0.00774582
0.0170177
0.0200833
0.00765684
0.0710094
0.0210046
0.0301505
0.009792
0.0547238
0.151338
0.0450502
0.0638572
0.0966416
0.363145
0.00793077
0.0148297
0.265104
0.473936
0.038862
0.0159886
0.0967896
0.242282
0.0637291
0.245842
0.248925
0.20027
0.104831
0.134837
0.216315
0.155237
0.152797
0.0781854
0.0261755
0.123767
0.0679987
0.0633484
0.0217855
0.0135
0.0214724
0.0265936
0.0492828
0.00193004
0.0038036
0.000457818
0.00271811
0.0687907
0.0678228
0.00850364
0.00101808
0.00471889
0.0350816
0.0710843
0.0702184
0.0121023
0.00307119
0.0052397
0.134133
0.0767179
0.512034
0.35933
0.124926
0.485861
0.328727
0.219919
0.105086
0.00977524
0.0015978
0.0160475
0.0535582
0.00501527
0.0209675
0.0213589
0.0074072
0.0269138
0.0188754
0.0204815
0.0246597
0.0248878
0.0106164
0.011019
0.0227714
0.0274552
0.02577
0.020734
0.0176607
0.0261278
0.0200766
0.114039
0.0722663
0.0647599
0.1672
0.068294
0.560036
1.09143
0.0961957
0.254223
0.32677
0.228823
0.350376
0.309865
0.131212
0.846595
0.984898
1.20889
1.20055
0.498842
0.387913
0.229496
0.0674338
0.0845171
0.381581
0.34725
0.15436
0.148267
0.145079
0.082079
0.100882
0.156979
0.0958762
0.0821624
0.123488
0.0719588
0.0470222
0.127956
0.194086
0.124898
0.122621
0.368296
0.388431
0.3873
0.377785
0.390349
0.378488
0.382732
0.389636
0.411299
0.375109
0.367085
0.393653
0.444488
0.399973
0.386997
0.377949
0.490707
0.373866
0.417794
0.524407
0.505651
0.426452
0.950181
0.768281
0.587921
0.816362
1.19715
0.756552
0.444889
0.851775
0.459243
0.776254
0.818928
1.56547
1.63576
0.907638
1.48079
1.7506
1.11046
1.57691
1.08996
0.735686
0.50135
0.359931
1.42663
1.00812
1.0333
0.19673
0.337635
1.22394
0.270822
1.01095
0.893359
0.250532
0.225863
0.191015
0.808882
0.976006
0.989684
0.952096
0.887254
0.980698
0.984583
0.908523
1.01013
0.93792
0.93267
0.967129
0.937654
0.877083
0.895622
0.849339
1.04134
0.974287
0.966259
0.886968
0.919051
0.9613
0.908455
0.633852
0.209232
0.235688
0.26564
0.731384
0.543744
0.954344
0.647585
0.559785
0.213188
0.431982
0.752869
0.540903
1.14297
1.06995
0.433079
0.463481
0.507887
1.46751
0.907462
0.957091
0.650512
0.402217
0.980024
1.08835
0.467429
0.346466
0.257502
0.954118
0.815024
1.0422
1.3322
0.605909
0.899805
0.903152
0.263931
0.65244
0.705412
0.282773
0.278282
0.987159
0.787324
0.808224
1.14002
0.821359
0.852499
0.30102
0.277996
0.657206
0.302689
0.840876
0.910828
0.954145
0.898811
0.891196
0.747469
0.809036
0.72671
0.79587
0.729089
0.488256
0.490083
0.811489
0.576181
0.472081
0.70541
0.715071
0.0713917
0.0820192
0.0876646
0.0868145
0.0857915
0.0983388
0.0793408
0.095272
0.072659
0.0703346
0.0743072
0.101619
0.076395
0.0916974
0.0826677
0.0919366
0.0802614
0.0813956
0.0825762
0.115998
0.0983776
0.0857571
0.124737
0.0964719
0.0774801
0.0844734
0.0912242
0.0421095
0.0278964
0.0730901
0.0487965
0.0175887
0.0117955
0.026751
0.0243368
0.0120263
0.0251185
0.0237024
0.0180591
0.0244394
1.90432
1.5128
1.52891
1.69276
1.40185
1.63244
2.37298
1.38163
1.50106
2.17901
1.46546
1.3293
1.47525
1.34289
3.51911
1.65691
2.39295
0.122902
0.0209837
0.136447
0.677059
0.544337
0.0270644
0.0898302
0.0806406
0.0112052
0.261767
0.393097
0.654631
0.177813
0.168284
0.465908
0.682143
0.0970613
0.10109
0.111421
0.108685
0.148979
0.18455
0.126686
0.925083
0.745646
0.156579
0.127396
0.275088
0.48008
0.770956
0.515798
0.605444
0.623453
0.769174
1.2357
1.6398
1.04264
1.49954
0.31889
0.63235
0.287797
0.0321599
0.0273472
0.0334222
0.0269973
0.0226071
0.0324804
0.0258503
0.0255088
0.0361544
0.0453436
0.0369525
0.0331227
0.0272293
0.0341699
0.133167
0.167442
0.101426
0.109533
0.242265
0.0944649
0.106817
0.220408
0.347171
0.25681
0.411089
0.159535
0.157578
0.252356
0.0795605
0.5909
0.690468
0.586954
0.794787
1.24729
1.06317
1.51145
1.85403
0.818499
0.793788
1.57889
1.6847
1.2782
1.70072
1.38237
1.45933
1.60711
1.59774
0.029452
0.0410705
0.0249033
0.0242686
0.0273093
0.0239139
0.0282342
0.0222383
0.0220766
0.0174723
0.935283
0.922409
0.671442
1.13517
0.236013
0.196513
0.146047
0.293738
0.532649
0.65253
0.909608
0.938203
0.773836
0.176289
0.195591
0.068773
0.596923
0.823464
0.181566
0.188608
0.159294
0.18917
0.581426
0.471327
0.46416
0.395277
0.566521
0.6645
0.335139
0.628918
0.590482
0.677599
0.575406
0.679525
0.355795
0.592034
0.593232
0.393681
0.332352
0.568903
0.00696351
0.00685483
0.00651503
0.00698911
0.00662955
0.00633135
0.00669945
0.00656592
0.00614556
0.00645112
0.00627223
0.00653417
0.00675544
0.00654464
0.006286
0.00601712
0.00612489
0.00591802
0.00627099
0.980931
1.06406
0.761209
0.908849
0.73852
0.734699
0.808457
0.646771
0.712698
0.660915
0.93037
1.02868
1.03387
0.907534
0.753358
0.724443
0.843015
0.929935
0.0277348
0.0289375
0.0242721
0.0220814
0.0370014
0.0310575
0.0358735
0.0302543
0.0280245
0.0471984
0.035474
0.036878
0.0370077
0.0444466
0.0597927
0.0571494
0.00401936
0.00412178
0.00411039
0.00403581
0.00407039
0.00400741
0.00399678
0.00395538
0.00397864
0.0039713
0.0039787
0.00393188
0.00398802
0.00460199
0.0045649
0.00468368
0.00467122
0.00459652
0.00446877
0.00496069
0.00471838
0.00508121
0.00475831
0.00487695
0.00486482
0.0047987
0.00494639
0.00463608
0.00432122
0.00480727
0.00407115
0.00450098
0.00446265
0.00234548
0.00405792
0.00425862
0.0044411
0.00431257
0.00462269
0.00379816
0.00426977
0.00424409
0.00456761
0.00434891
0.008832
0.00882353
0.00861083
0.00800958
0.00813779
0.00846691
0.00787963
0.00791541
0.00823238
0.00831419
0.0099828
0.00982738
0.0084016
0.0080215
0.00826784
0.00832175
0.00976577
0.00867564
0.0088841
0.00869461
0.716439
0.710074
0.633066
0.392652
0.542826
0.471828
0.713278
0.56309
0.644068
0.309735
0.336654
0.628936
0.491915
0.582996
0.676489
1.02865
0.708121
0.850771
0.884139
0.960178
1.09838
0.844734
0.94557
0.96804
1.04084
1.10143
1.27771
1.0617
0.46485
0.431652
0.490784
1.03045
1.04407
0.0116707
0.010892
0.0109271
0.0096069
0.0124179
0.0110854
0.00963334
0.00950276
0.0102601
0.010918
0.0087966
0.00871306
0.00858
0.00923129
0.00974924
0.271773
0.206174
0.189881
0.178208
0.339758
0.189179
0.26766
0.345706
0.393561
0.00809683
0.00851206
0.00749483
0.0075166
0.00817926
0.00736925
0.00728067
0.00771966
0.0070372
0.00680017
0.00684657
0.0066856
0.00703273
0.00786809
0.0073567
0.00686125
0.00691863
0.00715418
0.00782136
0.00819174
0.00697685
0.00717388
0.00272909
0.0039465
0.00245578
0.0028561
0.00398276
0.00745779
0.00327199
0.00244111
0.00199213
0.00260077
0.00215374
0.00279912
0.00316893
0.00196531
0.0023889
0.00279682
0.00273738
0.00593235
0.00317626
0.00763198
0.00409529
0.00401123
0.00382338
0.00423087
0.00478851
0.0041499
0.00437511
0.00461009
0.00426297
0.0040185
0.00385672
0.00372385
0.00376551
0.00426675
0.00417397
0.00456284
0.00442132
0.00437305
0.00409206
0.00429064
0.0040567
0.00456538
0.00376428
0.00404464
0.00428591
0.00370597
0.0269129
0.0469281
0.0441781
0.0348568
0.0138166
0.0384343
0.000316683
0.00378947
0.0419178
0.0190302
0.0555141
0.029165
0.0244419
0.00322966
0.00556184
0.0195664
0.00597415
0.00881113
0.00295184
0.00529781
0.00605182
0.00780794
0.00552965
0.0210792
0.00540131
0.00990135
0.00585971
0.00584499
0.00536637
0.00602287
0.00768706
0.00546865
0.00635384
0.0185855
0.00937965
0.0109617
0.0140592
0.00717894
0.00998765
0.00915983
0.00894214
0.00803756
0.00951829
0.00727463
0.00374221
0.00380985
0.00427925
0.00374895
0.00367077
0.00461326
0.00396938
0.00370806
0.00364337
0.00379859
0.0046184
0.00370344
0.00349201
0.00547862
0.00600005
0.00559864
0.0050804
0.00559505
0.0059755
0.0064181
0.00578134
0.00555093
0.00557945
0.00550156
0.00601308
0.00569547
0.24724
0.159508
0.203708
0.258428
0.203367
0.151491
0.192579
0.206508
0.211372
0.287298
0.309018
0.266136
0.282541
0.0243891
0.0118939
0.0135366
0.0127215
0.0117857
0.0241055
0.00753837
0.0296859
0.0119782
0.0111546
0.0124483
0.00880651
0.00667101
0.00657901
0.0113824
0.0134251
0.0128248
0.0248627
0.0214529
0.0338016
0.0129539
0.00787745
0.0450091
0.0380763
0.090939
0.0283952
0.0430786
0.0277217
0.0141415
0.0374135
0.0181434
0.0169754
0.0216194
0.0134307
0.0198165
0.0145455
0.0298348
0.0163242
0.00999421
0.0108744
0.0265584
0.0143996
0.011804
0.0145524
0.0185412
1.16501
1.2029
1.17236
1.01364
1.27718
1.2084
1.47864
1.41895
1.36267
1.44536
1.5721
0.00397918
0.00385933
0.00411898
0.00428491
0.00442008
0.00406069
0.0042647
0.00411394
0.00429631
0.0043072
0.00407438
0.00409603
0.00417746
0.00310102
0.00878454
0.000104521
0.0457315
0.00522485
0.00631049
0.00285009
0.00293389
0.00670314
0.0077191
0.00444227
0.00550698
0.00591097
0.00497955
0.00984723
0.00414639
0.00529061
0.00515511
0.00807505
0.00450067
0.00453218
0.0046143
0.00357045
0.0038202
0.00306165
0.00205105
0.00460973
0.00337264
0.00346796
0.00462648
0.00351382
0.00377146
0.00397851
0.00379738
0.00386172
0.00344313
0.00330428
0.00378966
0.00384049
0.00397503
0.00393011
0.00424883
0.00419144
0.00403049
0.00392055
0.00394908
0.00400903
0.00401575
0.00396019
0.00449976
0.0041104
0.00411103
0.0158827
0.0146065
0.0185486
0.0129954
0.0132511
0.0171458
0.0186987
0.0151668
0.0173661
0.0161047
0.0132971
0.0174577
0.0142765
0.000565411
0.00437034
0.0041828
0.00221193
0.00328446
0.00349573
0.00334949
0.00390031
0.00373048
0.00356017
0.00354908
0.00300835
0.00194626
0.00349025
0.00390093
0.00279195
0.00463892
0.0025343
0.00721178
0.00855211
0.00259511
0.0095266
0.0133289
0.00947533
0.00934242
0.0178394
0.0154952
0.0132062
0.022763
0.0238206
0.0176911
0.0233156
0.0293099
0.0168228
0.01767
0.0210652
0.0241439
0.0184236
0.0232778
0.339095
1.08986
0.252298
0.423879
0.341304
0.805062
0.108976
0.114993
0.817105
0.107659
0.414679
1.22203
0.495348
0.349683
0.461963
0.299597
0.0765536
0.319131
0.566733
0.139104
0.714369
0.417207
0.187836
0.081803
0.290326
0.646433
0.673951
0.00889651
0.0159893
0.0168218
0.0045859
0.008569
0.641989
0.538238
0.555015
0.0482646
1.17089
0.126494
1.11456
2.50731
1.98124
1.00111
2.14895
2.66902
0.917998
1.80975
0.344376
1.14659
1.00363
0.763467
0.850806
1.08591
0.851107
0.85466
1.06426
1.03883
0.797442
0.490162
0.888428
0.821056
0.512113
0.607916
1.22763
1.12374
0.797387
0.040577
0.0789193
0.1275
0.117218
0.0705971
0.131497
0.0594648
0.198661
0.0214786
0.042444
0.365659
0.533901
0.322495
0.429133
0.23194
0.089933
0.111913
0.14103
0.378322
0.106107
0.348427
0.399369
0.218357
0.190744
0.212551
0.147448
0.182331
0.28858
0.501117
0.421143
0.0879519
0.281338
0.451732
0.289241
0.0555373
0.00926533
0.0191497
0.00318868
0.00277228
0.00230223
0.036622
0.00153823
0.0245386
0.0355724
0.0410561
0.0415374
0.00336671
0.00178142
0.00297314
0.00459377
0.0130518
0.0124658
0.978649
1.31211
1.22414
1.2583
1.50714
1.10275
2.21232
0.219803
1.98073
0.811697
0.310134
0.0615488
0.292965
0.445878
1.20447
0.218428
1.30752
0.830594
0.236713
0.357986
0.0581745
0.27922
0.00284063
0.00302295
0.00161779
0.00186095
0.00282979
0.00277278
0.00283148
0.00266714
0.00279986
0.00310076
0.00267062
0.00270933
0.00253176
0.00255792
0.00259272
0.00231601
0.0025946
0.00278385
0.00269036
0.00253825
0.00759831
0.0254309
0.0770104
0.00436845
0.00146785
0.00306538
0.0824997
0.000580395
0.017754
0.0036738
0.00375987
0.025256
0.00359887
0.00367544
0.0246474
2.29121
3.28883
2.4417
3.612
3.26872
3.30143
3.7304
1.89114
0.011246
0.00733131
0.0227245
0.0193134
0.0199874
0.00534623
0.00974929
0.00593044
0.0194105
0.0149905
0.00588788
0.0145161
0.0812088
0.118193
0.973633
0.364828
0.0881974
0.160758
0.897643
0.675023
0.881698
0.93231
1.31966
0.682393
1.08833
1.71945
0.522418
0.202403
0.20643
0.285493
0.00236152
0.00521337
0.006038
0.00741906
0.00685482
0.00226174
0.00301719
0.0057237
0.00506033
0.00639118
0.00935192
0.00449387
0.00371049
4.5771e-05
0.00378896
0.00832373
0.0100241
0.00488404
0.0446034
0.0454211
0.0685056
0.0706076
0.0607927
0.065882
0.035015
0.0435102
0.0514211
0.0788449
0.0706823
0.046885
0.0992244
0.0487133
0.0708196
0.0726051
0.066172
0.0431205
0.0421444
0.0688079
0.0729333
0.0386837
0.0145514
0.0131878
0.015097
0.0177358
0.0139151
0.0167933
0.014671
0.0130785
0.0156653
0.0174734
0.0172531
0.0157971
0.0155465
0.0144162
0.0157443
0.0140284
3.8886
3.39278
3.068
3.9357
3.21828
3.19023
2.40371
1.66623
1.07074
1.05892
1.11888
1.14046
2.5842
1.21399
1.5956
1.35441
1.83856
2.13544
0.0594101
0.123253
0.109722
0.0533391
0.035544
0.0222449
0.0531288
0.0633047
0.0875213
0.0678455
0.0394258
0.0293622
0.0249075
0.0294647
0.0556485
0.0387188
0.00864097
0.00360461
0.00278149
0.00277337
0.00415922
0.00296225
0.00299047
0.00301199
0.00217394
0.00200269
0.0117811
0.00870422
0.0161751
0.000498819
0.0026109
0.0021406
0.00245513
0.00264019
0.00642592
0.0127446
0.445857
0.437855
0.35879
0.204259
0.0475043
0.216117
0.0196747
0.160097
0.211182
0.334042
0.053674
0.0474993
0.114439
0.14134
0.0662683
0.0755378
0.0597255
0.0307277
0.0284025
0.0403233
0.0613932
0.0572327
0.0162305
0.0487679
0.0189021
0.0198469
0.0150698
0.0282701
0.234587
0.158105
0.0876245
0.193537
0.295778
0.0553532
0.0377589
0.16965
0.189151
0.165878
0.0421102
0.029389
0.0917879
0.114666
0.0711772
0.0477064
0.0763395
0.0379747
0.0346286
0.00394269
0.0393864
0.0380751
0.0435606
0.0425479
0.0282264
0.0337808
0.0159907
0.0139701
0.0192066
0.0120302
0.0469377
0.0460324
0.0244295
0.039106
0.0359679
0.0378051
0.0577102
0.0236838
0.0109502
0.0792626
0.0658293
0.0293529
0.0273104
0.0486794
0.000649291
0.00171458
0.00587624
5.5562e-05
0.00388779
0.00167396
0.000234116
0.00238406
0.0163407
0.0360782
0.0297674
0.00623677
0.00590423
0.0126314
0.00905802
0.0117275
0.00776059
0.00849231
0.00325506
0.004915
0.000548304
0.00929193
0.00906377
0.00498861
0.00466713
0.00499164
0.0050159
0.00460441
0.00476575
0.00505816
0.00486486
0.00486521
0.00482766
0.00496125
0.00473089
0.00458125
0.0047831
0.0120707
0.0124055
0.0167162
0.0162473
0.017141
0.0172745
0.0119663
0.0106769
0.0142595
0.0151545
0.012372
0.0153342
0.0132161
0.0138117
0.0446406
0.0526904
0.0561361
0.0593365
0.114639
0.113266
0.128695
0.139817
0.0512815
0.0901347
0.0829104
0.0859195
0.117244
0.0840548
0.0719831
0.379566
0.456182
0.0408728
0.0971517
0.140164
0.388697
0.477952
0.0101513
0.0563489
0.0284504
0.0608422
0.137402
0.035712
0.0557819
0.0267436
0.00769361
0.0401922
0.657342
0.747385
0.582344
0.540246
0.462371
0.467078
0.54242
0.654756
0.44409
0.428401
0.559314
0.498566
0.536442
0.445586
0.400565
0.487807
0.521798
0.523839
0.582351
0.545963
0.54656
0.527519
0.347565
0.356864
0.457407
0.486871
0.505624
0.814259
0.257895
0.317816
0.318821
0.494072
0.218305
0.198817
0.715885
0.58544
0.472408
0.109631
0.169507
0.0822559
0.0642856
0.219454
0.20261
0.20707
0.148528
0.217519
0.059441
0.154369
0.0675989
0.206266
0.245886
0.150832
0.18578
0.372225
0.376707
0.176581
0.269552
0.374085
0.423658
0.413505
0.331098
0.288004
0.280112
0.284243
0.309469
0.137922
0.190687
0.352327
0.212473
0.202109
0.223265
0.00356191
0.00373825
0.00392076
0.00358036
0.00334238
0.00369528
0.00333121
0.00337463
0.00359348
0.00338413
0.00334835
0.00333595
0.00336665
0.00339939
0.00335894
0.0033521
0.00335043
0.00335465
0.00330965
0.00336235
0.0117175
0.00949125
0.00443086
0.00554618
0.0271692
0.010363
0.00546382
0.0181695
0.00703193
0.00556767
0.0039132
0.0336658
0.0066256
0.00609148
0.00603223
0.00603091
0.00667596
0.00623049
0.00689664
0.00693547
0.00642984
0.00621395
0.00612648
0.00621946
0.00601032
0.00693879
0.00672067
0.0443423
0.0547119
0.0488672
0.0499294
0.237904
0.203132
0.167433
0.171875
0.218974
0.0628838
0.0921449
0.0343604
0.0395868
0.144485
0.108321
0.0856371
0.0767299
0.0732276
0.11166
0.0892943
0.0698168
0.179103
0.170528
0.381271
0.290034
0.167475
0.244212
0.223159
0.323289
0.0894028
0.0177825
0.098293