/*--------------------------------*- C++ -*----------------------------------*\
  =========                 |
  \\      /  F ield         | OpenFOAM: The Open Source CFD Toolbox
   \\    /   O peration     | Website:  https://openfoam.org
    \\  /    A nd           | Version:  10
     \\/     M anipulation  |
\*---------------------------------------------------------------------------*/
FoamFile
{
    format      ascii;
    class       volScalarField;
    location    "20";
    object      nut;
}
// * * * * * * * * * * * * * * * * * * * * * * * * * * * * * * * * * * * * * //

dimensions      [0 2 -1 0 0 0 0];

internalField   nonuniform List<scalar> 
75457
(
0.0590927
0.0656464
0.0528369
0.0215837
0.0582178
0.0242313
0.0624296
0.0197573
0.02952
0.0293921
0.0284232
0.0442823
0.0582018
0.0203605
0.0371992
0.030177
0.00804377
0.0215764
0.026792
0.0053995
0.0133289
0.00900089
0.034509
0.0355065
0.0220548
0.0402825
0.0411268
0.0554957
0.0452097
0.0714948
0.0501517
0.0620622
0.059319
0.0322471
0.0279605
0.0356834
0.03341
0.0584107
0.054463
0.0333475
0.0337771
0.031455
0.0334751
0.0264467
0.0414178
0.0118516
0.0069859
0.0226765
0.097571
0.0556853
0.0787333
0.0946817
0.0906543
0.0809336
0.0589904
0.0609305
0.123901
0.107342
0.100963
0.0153164
0.090325
0.101353
0.0518025
0.0442793
0.00795688
0.0410722
0.0129815
0.0452553
0.0569649
0.0116171
0.0565414
0.0126951
0.0467211
0.00372887
0.0561984
0.0181346
0.0180916
0.170063
0.180248
0.203817
0.112913
0.122987
0.192611
0.25431
0.165603
0.208867
0.210344
0.133218
0.177218
0.102856
0.247082
0.251994
0.130827
0.198368
0.160796
0.0987823
0.0983556
0.10155
0.01418
0.123171
0.0955703
0.113215
0.00535993
0.000179349
0.0010134
0.00135643
0.00897607
0.00217673
0.0101502
0.0427133
0.0664702
0.00813617
0.00827777
0.0518077
0.0138759
0.0846971
0.0116638
0.0496687
0.0520585
0.0136853
0.00313078
0.0106807
0.0114775
0.0290002
0.0579609
0.0356896
0.00775019
0.0682166
0.0738222
0.0128923
0.0247442
0.130727
0.0420184
0.0968342
0.155725
0.0567454
0.0512928
0.136296
0.124594
0.00991865
0.0304214
0.0491866
0.0693918
0.0347801
0.0412779
0.109125
0.0829573
0.0637539
0.0683046
0.138249
0.0111028
0.118281
0.0550421
0.0477187
0.0679936
0.0721302
0.152075
0.00766601
0.0776029
0.124433
0.00769866
0.0580764
0.123335
0.000864728
0.000869464
0.000861312
0.000878714
0.000872273
0.000868705
0.000865006
0.000855766
0.000883366
0.000849112
0.000866894
0.000868976
0.000868329
0.0789274
0.0921085
0.115894
0.096707
0.207827
0.00736656
0.180984
0.0752833
0.00872646
0.101986
0.191068
0.0892161
0.0757637
0.017344
0.120839
0.0754334
0.0972133
0.0712106
0.0692858
0.0136453
0.0266793
0.0539998
0.0467655
0.0320166
0.0236776
0.0763911
0.0826658
0.00802489
0.0758597
0.0725219
0.0692613
0.130262
0.117586
0.117328
0.107402
0.105043
0.0128557
0.0133432
0.11167
0.0936681
0.0145369
0.103963
0.0146556
0.0153984
0.063631
0.106835
0.0771164
0.00982342
0.0830147
0.0834701
0.0138805
0.0673603
0.106025
0.007205
0.0460693
0.0447913
0.063354
0.0784659
0.0913908
0.105896
0.12175
0.0898504
0.0911015
0.0924137
0.0897274
0.114051
0.00936152
0.125526
0.0739976
0.0942153
0.104332
0.119606
0.104549
0.0124232
0.103326
0.00965535
0.0711479
0.0105296
0.0899173
0.00745253
0.0652291
0.028707
0.0419931
0.00880021
0.0313745
0.0343148
0.0918033
0.0576261
0.0922311
0.0176124
0.0929845
0.0157392
0.0159415
0.0703029
0.0120793
0.0790168
0.140441
0.140449
0.0890617
0.129446
0.0935271
0.0775302
0.0110326
0.0834051
0.111359
0.00944923
0.0995365
0.00853506
0.103307
0.00779865
0.100592
0.0656792
0.0746829
0.0903741
0.080928
0.0857901
0.137599
0.00940894
0.0649563
0.012505
0.0676508
0.106701
0.105468
0.0105289
0.1065
0.047632
0.0225189
0.156809
0.0799698
0.255987
0.0189853
0.16016
0.286538
0.020852
0.375674
0.168018
0.119744
0.155662
0.0712591
0.0847019
0.0608451
0.101632
0.0855529
0.00509066
0.0711752
0.0859021
0.0972301
0.0262285
0.00619291
0.112495
0.0956103
0.0892175
0.122558
0.0856093
0.0552234
0.0590808
0.0990583
0.00842813
0.0952355
0.0962892
0.135315
0.140657
0.012468
0.110233
0.128212
0.0113956
0.140058
0.138242
0.0493877
0.0824424
0.0889255
0.152929
0.0348627
0.208354
0.161143
0.0301181
0.130789
0.12754
0.112355
0.145878
0.124793
0.0200248
0.104357
0.13498
0.018187
0.0138923
0.0195072
0.0133727
0.0860698
0.0884293
0.0831844
0.0928311
0.0944875
0.0894044
0.101024
0.0961674
0.0963326
0.103586
0.0138107
0.0877176
0.0878155
0.124003
0.00880952
0.10645
0.0956645
0.0684605
0.00921678
0.0176095
0.06836
0.285998
0.101716
0.123429
0.0693505
0.0694037
0.0936231
0.000889198
0.000912914
0.000847445
0.000847719
0.00092526
0.000964904
0.000880289
0.000933382
0.000906588
0.00113991
0.000837012
0.000837892
0.000812704
0.000818756
0.000846987
0.000838778
0.000826398
0.000837723
0.000898016
0.000902864
0.000857258
0.000816348
0.000793918
0.000801902
0.000869374
0.000858117
0.000856567
0.000799015
0.000788861
0.00082705
0.00083833
0.000912681
0.000905531
0.000850784
0.000848078
0.000885628
0.000869547
0.000853767
0.000853398
0.000913177
0.000902739
0.000876165
0.000897148
0.000869867
0.000861478
0.000858818
0.000856131
0.00089421
0.000914195
0.000863929
0.000884786
0.000889269
0.000873422
0.0523712
0.0247411
0.025855
0.0237165
0.0250535
0.0453718
0.022489
0.0274712
0.0193851
0.0493476
0.0192467
0.0191601
0.0201945
0.0217772
0.0170255
0.0473729
0.0449418
0.0392937
0.0522983
0.0247626
0.0316816
0.0329142
0.0586155
0.0247382
0.0315929
0.0303126
0.0444028
0.0360838
0.0522989
0.0306517
0.0274536
0.0100245
0.00359096
0.00528174
0.0206653
0.0194832
0.0127315
0.00498324
0.0048809
0.00495647
0.00612688
0.00375742
0.0122081
0.0190755
0.0188476
0.0225889
0.0530731
0.0241799
0.0154075
0.015039
0.000878031
0.000880597
0.00088474
0.000886949
0.000877056
0.000916661
0.000916273
0.000834025
0.000866318
0.000908166
0.000902261
0.000949443
0.000912981
0.000867422
0.000862192
0.000866478
0.000842628
0.000839094
0.00084094
0.000844868
0.000845261
0.00083576
0.000852883
0.000847212
0.000846115
0.000847059
0.000859458
0.000847194
0.00085076
0.000849172
0.000854986
0.00086291
0.000853751
0.000953097
0.000982412
0.000974489
0.00101189
0.00101182
0.000992576
0.000756314
0.00144767
0.000932939
0.00100454
0.000860361
0.000984515
0.000956475
0.000985375
0.00092819
0.000962302
0.000775745
0.100816
0.0941067
0.094575
0.0948911
0.101865
0.113282
0.137862
0.132471
0.107408
0.110442
0.0953883
0.0988081
0.143803
0.107335
0.143089
0.102235
0.113176
0.118303
0.0244173
0.0244988
0.0283318
0.035105
0.0150067
0.0391793
0.0270282
0.027191
0.028227
0.0446559
0.0300854
0.0298828
0.029187
0.0189032
0.0530823
0.0494843
0.0580588
0.0373252
0.0593695
0.059578
0.0662005
0.0514221
0.0454742
0.0628597
0.0639208
0.0659122
0.0520181
0.032465
0.0347957
0.0639999
0.0411018
0.0548247
0.00091402
0.000918862
0.000922923
0.000991522
0.00103904
0.000915631
0.00089992
0.000969292
0.00095114
0.000953141
0.000851162
0.00102572
0.0753049
0.0541682
0.0965792
0.0447198
0.0848689
0.0718446
0.0690516
0.0735276
0.0900552
0.0294504
0.0216541
0.0239732
0.0245141
0.0197252
0.0237974
0.0232343
0.00746178
0.027393
0.00584158
0.0250236
0.0451985
0.0411425
0.0461541
0.0405099
0.0338823
0.025904
0.0194898
0.0104472
0.0365265
0.0170424
0.0194643
0.0236676
0.0015437
0.00120058
0.0111792
0.0023517
0.000415202
0.0154604
0.0116928
0.00369153
0.000139131
0.000585642
0.000226938
0.0005541
0.000821564
0.000741831
0.00138563
0.0154418
0.0139975
0.0138263
0.00454791
0.0550718
0.0449518
0.0329498
0.0691747
0.0433492
0.0577541
0.0458427
0.0271439
0.0420282
0.0269564
0.0634836
0.0539613
0.0474568
0.0479179
0.10618
0.119023
0.0939239
0.102596
0.102392
0.100946
0.0781688
0.0961314
0.117851
0.0806123
0.0818541
0.117623
0.0882656
0.0795671
0.0875832
0.0846458
0.0829064
0.0849517
0.0398693
0.0696678
0.0772804
0.00578285
0.0221547
0.0611923
0.0360783
0.010935
0.0196224
0.0822161
0.0673672
0.23215
0.233003
0.213821
0.142458
0.19952
0.20855
0.221433
0.183575
0.210207
0.197736
0.200404
0.173714
0.167901
0.202693
0.163796
0.172726
0.187962
0.198714
0.185883
0.149568
0.192528
0.013569
0.0100156
0.029543
0.0224816
0.0251359
0.0118907
0.0195784
0.0197504
0.0196792
0.0475297
0.0551995
0.0632651
0.010616
0.0554507
0.0741177
0.045832
0.0616642
0.00766256
0.0395708
0.0477279
0.0334078
0.0393943
0.0431448
0.0672844
0.0439109
0.0277052
0.0568314
0.0399655
0.254571
0.278608
0.225206
0.243639
0.232207
0.227557
0.214217
0.198939
0.193494
0.226224
0.20161
0.21304
0.202402
0.0251588
0.0297111
0.00924899
0.0113511
0.0102884
0.00924209
0.0147313
0.0177705
0.0461987
0.0202619
0.0321063
0.0344695
0.0104773
0.0110444
0.0330015
0.0194742
0.0335358
0.032819
0.024817
0.0392437
0.0459153
0.0213557
0.0273662
0.0102016
0.0390106
0.0136951
0.0107872
0.0429691
0.0426396
0.00842067
0.0307231
0.0346551
0.0288564
0.0270726
0.0430294
0.0130121
0.0221464
0.0577013
0.0386749
0.0186276
0.00250491
0.00612809
0.042119
0.0575175
0.0339414
0.0344971
0.0454329
0.0546136
0.0331659
0.0404967
0.039787
0.0255421
0.0256085
0.0421789
0.045619
0.0541516
0.0271617
0.0280303
0.03767
0.0547537
0.041964
0.0326207
0.0426757
0.0351119
0.0928173
0.0685311
0.0144476
0.0278429
0.0381922
0.0402166
0.027553
0.0309275
0.0505722
0.093646
0.10909
0.0946122
0.0397451
0.0527862
0.0291774
0.0833726
0.0667993
0.0118509
0.0114403
0.00994192
0.0107357
0.0118227
0.00965935
0.00848932
0.00927223
0.00877842
0.0108663
0.0115912
0.00789182
0.0110429
0.0112953
0.000861438
0.000794878
0.000808124
0.000869804
0.000842961
0.000814459
0.000831085
0.000849097
0.000898936
0.000901463
0.0413496
0.0315893
0.0440297
0.0535574
0.0223733
0.0193875
0.0507217
0.0610437
0.0259664
0.0436211
0.0447797
0.0445531
0.0478616
0.0190808
0.0477178
0.0445009
0.0132786
0.108443
0.11236
0.107687
0.169581
0.161368
0.1345
0.158589
0.155276
0.165445
0.178675
0.100279
0.102466
0.122522
0.11448
0.144194
0.164001
0.154758
0.111233
0.118215
0.125122
0.000523022
0.000770273
0.000767462
0.000468631
0.000962384
0.00546899
0.00580349
0.00109423
0.000764863
0.00070909
0.00563619
0.00699044
0.000420912
0.00361379
0.00466506
0.00776332
0.20832
0.278821
0.357696
0.314042
0.152301
0.236
0.142731
0.194391
0.275544
0.270981
0.160101
0.180179
0.213
0.0312906
0.0407763
0.0412895
0.0283707
0.0250826
0.0267387
0.0381852
0.0335892
0.0283073
0.029346
0.0185207
0.0278251
0.0104635
0.0273814
0.0236032
0.0137284
0.0289075
0.02661
0.0130001
0.0119512
0.0116712
0.0139058
0.000380651
6.17327e-05
0.00066837
0.000422545
0.000394132
0.00669727
0.0260062
0.00100829
0.00964537
0.0604473
0.0678534
0.0379908
0.0353548
0.040931
0.0145274
0.0417142
0.0489707
0.0406002
0.0180537
0.0176312
0.038824
0.00937951
0.0226251
0.0188291
0.0167918
0.0172914
0.0241131
0.0161583
0.206724
0.130579
0.217739
0.216785
0.193202
0.193061
0.148046
0.238402
0.205432
0.232255
0.235894
0.245546
0.220507
0.212108
0.227483
0.199562
0.0159509
0.0337106
0.0291491
0.017149
0.0025085
0.00427607
0.00603842
0.00267191
0.00244845
0.00225852
0.0190959
0.0131634
0.00413387
7.61258e-05
0.00643747
0.00492412
0.022264
0.146711
0.0829442
0.129118
0.0249912
0.139544
0.0852178
0.0633632
0.0775381
0.0778007
0.0831633
0.107304
0.166169
0.175278
0.0905366
0.0966203
0.0983532
0.0975538
0.084881
0.175243
0.0019933
0.0012127
0.00100712
0.000920554
0.00114649
0.000813833
0.000847762
0.000907085
0.000959167
0.00187043
0.00224693
0.00125791
0.00116444
0.000844621
0.00216989
0.0128351
0.0140943
0.0238146
0.0324045
0.0404406
0.0382067
0.0424582
0.0203558
0.0556874
0.0698866
0.064986
0.0349788
0.0741304
0.0718972
0.00675253
0.0109102
0.00520185
0.00615721
0.00557821
0.00836856
0.00391118
0.00213766
0.00841166
0.00219972
0.00477124
0.00218576
0.00320055
0.00209919
0.00169668
0.00182781
0.0312709
0.0332746
0.0275958
0.0275213
0.0621649
0.0627252
0.0197364
0.0425323
0.0405231
0.0237399
0.0630698
0.0535811
0.0652057
0.0513546
0.0548212
0.0636218
0.0670027
0.0651913
0.0636813
0.00424239
0.0161435
0.00879332
0.00827711
0.00468658
0.0306705
0.01083
0.0153045
0.0187127
0.0141417
0.00471586
0.00553531
0.00754313
0.00570567
0.0206563
0.0172253
0.0170532
0.0346737
0.026029
0.0303766
0.01505
0.0211221
0.0369819
0.0255501
0.0230227
0.00194
0.00165531
0.00146537
0.00963905
0.00052634
0.000859271
0.00345877
0.00303921
0.00168392
0.0014774
0.00343552
0.0038969
0.00158923
0.00313344
0.00112598
0.000877887
0.000910182
0.00103158
0.00418064
0.00108932
0.00740815
0.0067312
0.00544549
0.0103541
0.00802789
0.00784549
0.0205864
0.00759015
0.020487
0.0234916
0.0184686
0.0130379
0.110287
0.163232
0.0138061
0.164432
0.0693659
0.101438
0.0705304
0.00990003
0.0115708
0.092275
0.0820924
0.0781864
0.0131783
0.096153
0.0970302
0.0771385
0.0978748
0.086776
0.0879241
0.092086
0.0929207
0.0907422
0.0871779
0.0914704
0.0920477
0.100908
0.0152052
0.0921728
0.0174652
0.0917964
0.0905782
0.0906961
0.0854941
0.0895273
0.112405
0.104147
0.110328
0.0211645
0.0371633
0.0131519
0.0208199
0.012159
0.0114204
0.00906194
0.0136026
0.0110125
0.0107025
0.0167709
0.00937066
0.0100796
0.0100974
0.00995548
0.00735167
0.196074
0.144088
0.123501
0.116269
0.0669321
0.0624551
0.173003
0.0799114
0.0641551
0.113359
0.0958995
0.124212
0.0539891
0.102489
0.0169441
0.101429
0.0142134
0.0648666
0.025527
0.0976626
0.0234228
0.116432
0.0762014
0.0848761
0.0950178
0.0726928
0.115262
0.0144868
0.106446
0.0456088
0.0795033
0.0857723
0.0159195
0.0810856
0.112427
0.103752
0.107409
0.0923322
0.0717589
0.152378
0.00999179
0.0544091
0.0677285
0.0142431
0.0671924
0.085248
0.0495357
0.120863
0.0153758
0.133523
0.0677076
0.0986569
0.0131867
0.0823176
0.057531
0.100321
0.0594404
0.0945239
0.0149234
0.0957822
0.0624948
0.0669696
0.0845142
0.0896322
0.0694173
0.0671415
0.0755753
0.0695437
0.0415917
0.0558023
0.0489625
0.0715893
0.0726653
0.0303765
0.0346617
0.0361998
0.0625593
0.0763015
0.0480956
0.0544627
0.0350254
0.0659539
0.0681632
0.0192864
0.0214638
0.0108939
0.00911111
0.0105974
0.01192
0.0259147
0.0247133
0.0123615
0.0157917
0.0123021
0.0695708
0.0828763
0.0536443
0.000912355
0.000903374
0.000915863
0.00096287
0.000909742
0.000879787
0.00327705
0.00362468
0.00550853
0.00284962
0.000129801
0.000998163
0.00138932
0.000814351
0.00253672
0.00236776
0.0071815
0.00245413
0.00056629
0.000683535
0.0393991
0.0582549
0.0537518
0.0443811
0.0278932
0.0355855
0.0226076
0.00995849
0.0511767
0.0666469
0.0532605
0.0208798
0.0233503
0.0110179
0.0329611
0.0309638
0.0332224
0.0387294
0.0337305
0.00519027
0.00306565
0.00470296
0.00374279
0.047675
0.0574903
0.0234669
0.0310742
0.0122399
0.00374692
0.0334511
0.0101465
0.0062921
0.0286489
0.0489188
0.0304873
0.0211781
0.0287792
0.0215147
0.0296258
0.056764
0.0523365
0.0804831
0.0565658
0.0802943
0.0897353
0.0890441
0.103124
0.0972111
0.106689
0.0880712
0.0784801
0.100487
0.0876001
0.0972426
0.0883366
0.0688442
0.0798159
0.086322
0.190831
0.176913
0.154239
0.25225
0.142932
0.0879487
0.145446
0.139445
0.174282
0.108706
0.112006
0.136734
0.136128
0.136094
0.213327
0.152299
0.000961126
0.000974062
0.00102924
0.00114861
0.000998185
0.00097915
0.00166036
0.00096442
0.00109364
0.000757687
0.000973344
0.000948205
0.00101746
0.00104125
0.00110089
0.00110479
0.00107255
0.00101002
0.000998624
0.00103557
0.0918158
0.105271
0.0770103
0.100392
0.0737777
0.0786678
0.0437796
0.0620191
0.0940438
0.0807913
0.0108025
0.101461
0.0521185
0.0525717
0.0820113
0.0763066
0.0107558
0.0837692
0.0133698
0.0741777
0.000715885
0.00118824
0.00132965
0.000983312
0.000885765
0.000944446
0.00101643
0.000990203
0.00104071
0.000994294
0.000939932
0.0010683
0.00105234
0.000770998
0.00106378
0.000945404
0.0014196
0.156685
0.0903509
0.142221
0.0129489
0.0915841
0.109593
0.0951264
0.112362
0.0194431
0.109097
0.247477
0.0751835
0.000989413
0.000905505
0.000594067
0.000283304
0.000873168
0.000719429
0.000704213
0.00049052
0.000356027
0.000899753
0.000702703
0.000365513
0.00444325
1.95101e-05
0.00169744
8.09764e-05
0.00241771
0.00811729
7.19006e-05
0.00503059
0.00712968
0.0282903
0.0260631
0.00125597
0.00208848
0.039184
0.0301604
0.0416503
0.00159004
0.00381753
0.00623753
0.00138683
0.0031124
0.00371306
0.00142819
0.0121976
0.00369912
0.00539
0.00178217
0.0113414
0.0287601
0.0093601
0.0128079
0.0189743
0.0575071
0.00166028
0.00299176
0.0435827
0.0680902
0.00756691
0.00329703
0.0190622
0.0409712
0.0123473
0.0242182
0.0296175
0.0311262
0.0172946
0.0133478
0.0330522
0.0278529
0.0241146
0.0125973
0.00412026
0.0220539
0.010903
0.0101852
0.00348187
0.00430163
0.00668613
0.00838589
0.0148975
0.00062764
0.00125435
0.000145018
0.000867759
0.0197848
0.0186885
0.00271943
0.000323899
0.00147973
0.0106572
0.0203345
0.0205147
0.00169899
0.000427959
0.000716528
0.0188366
0.0108271
0.0631007
0.0515446
0.0176762
0.0573047
0.0451646
0.0333413
0.01636
0.00137246
0.000203383
0.00208716
0.00741381
0.000690858
0.000960171
0.000971022
0.000441238
0.00148562
0.000961233
0.000933754
0.000978656
0.000975775
0.000569547
0.000557211
0.000890819
0.000911902
0.00103629
0.000778445
0.000743322
0.0010388
0.000832055
0.015639
0.0124003
0.012022
0.0213293
0.0130211
0.0401698
0.0534672
0.0179386
0.0222859
0.0279002
0.0256396
0.0341904
0.0266056
0.0224843
0.129478
0.0974054
0.0273329
0.183006
0.0603079
0.0571193
0.0407281
0.0145436
0.0189142
0.0555291
0.0529312
0.0292718
0.0287135
0.0294564
0.0170429
0.0211183
0.0313956
0.0206174
0.0182909
0.0254221
0.0156713
0.0101384
0.0263269
0.036907
0.0266649
0.0261897
0.0927898
0.107872
0.117958
0.105071
0.0935901
0.109839
0.113851
0.114821
0.0931949
0.112374
0.105434
0.105944
0.114821
0.119542
0.119924
0.119754
0.0904628
0.0844783
0.0866899
0.0916509
0.104439
0.0971341
0.10585
0.130111
0.094106
0.132319
0.0141995
0.0912763
0.0887378
0.0928301
0.103333
0.106857
0.0903925
0.111858
0.019729
0.088027
0.10083
0.0213732
0.103229
0.0204675
0.09639
0.0931783
0.0855289
0.0789029
0.018131
0.10299
0.0926766
0.064639
0.0773547
0.106366
0.0693663
0.0969337
0.0938594
0.0657952
0.064362
0.0580727
0.0996761
0.176408
0.159408
0.171599
0.110882
0.131085
0.131051
0.102299
0.147013
0.152428
0.12197
0.154813
0.146944
0.115298
0.130533
0.0242422
0.125122
0.111849
0.112107
0.0209588
0.100373
0.121553
0.11453
0.114104
0.0472632
0.052211
0.0565504
0.0872062
0.0782154
0.13153
0.0938975
0.086117
0.0508584
0.0699344
0.0989381
0.0703692
0.0106923
0.00991907
0.0679855
0.0719152
0.0735688
0.013647
0.107264
0.0785227
0.0868202
0.121228
0.108353
0.0114158
0.0761606
0.0717226
0.0634513
0.0985911
0.0965958
0.0728129
0.0140029
0.0904574
0.0983359
0.0902
0.0634955
0.106872
0.124725
0.06428
0.0634812
0.103598
0.0913751
0.080523
0.0112941
0.11854
0.0829858
0.0682387
0.0677157
0.0850713
0.0709733
0.146215
0.109786
0.183804
0.156057
0.105687
0.15092
0.163265
0.13341
0.146333
0.162919
0.116539
0.1181
0.183489
0.142181
0.117156
0.161436
0.165241
0.0361276
0.0408992
0.043149
0.0432323
0.0430686
0.0461145
0.0405492
0.0490546
0.0363485
0.0356586
0.0382873
0.0476766
0.0382479
0.044462
0.041941
0.0443242
0.0405034
0.0404767
0.0407639
0.0492155
0.0450167
0.0427294
0.0494021
0.0428746
0.0351718
0.038792
0.0462475
0.0238042
0.0164759
0.0369136
0.0236827
0.0105759
0.00709305
0.0145273
0.0128808
0.00724976
0.0147515
0.013808
0.010482
0.0143943
0.245121
0.206094
0.182023
0.187244
0.176876
0.187653
0.292409
0.198271
0.196778
0.259351
0.194523
0.186484
0.205208
0.20077
0.262368
0.209864
0.270587
0.0311309
0.00605406
0.0344625
0.0883401
0.0859225
0.00780228
0.0238965
0.0215262
0.00339025
0.0565573
0.0792051
0.0944317
0.0551601
0.0535314
0.0886074
0.102119
0.0365324
0.0360835
0.0400194
0.0392225
0.0493585
0.0468646
0.0430083
0.0959071
0.0995273
0.0452401
0.0396844
0.0571285
0.0853871
0.0938264
0.0853607
0.096805
0.0874296
0.0966381
0.081339
0.0148303
0.0973054
0.0136203
0.0726221
0.0853448
0.0688297
0.0177606
0.015479
0.01839
0.0152392
0.0130885
0.0176802
0.0144762
0.0145376
0.0182265
0.0219489
0.0190415
0.0176902
0.015151
0.0179248
0.0413632
0.052484
0.0354469
0.0386299
0.0591184
0.0358463
0.0379517
0.0579104
0.0780682
0.067151
0.0871632
0.0455089
0.0501737
0.0640968
0.0312917
0.0810673
0.0885949
0.03041
0.0411778
0.246153
0.0550828
0.278122
0.352139
0.0805763
0.134947
0.164811
0.314407
0.29569
0.248677
0.181968
0.330753
0.306342
0.260119
0.00144442
0.00169423
0.000972136
0.00119018
0.00128327
0.00111235
0.00119077
0.00113282
0.000940389
0.000894241
0.0933311
0.0119495
0.0873741
0.0147093
0.0548046
0.0501848
0.0415214
0.0610386
0.0741462
0.0743435
0.0866637
0.0934305
0.0879212
0.0476802
0.050493
0.0247622
0.0745386
0.0864002
0.0469868
0.05008
0.0435418
0.0466028
0.131617
0.0710601
0.105706
0.0832943
0.108757
0.0363301
0.0661173
0.171178
0.132403
0.0412207
0.0770588
0.0411551
0.0691441
0.175219
0.155576
0.0695477
0.062204
0.150878
0.000870829
0.000870801
0.000873416
0.000873497
0.000872767
0.000869237
0.000873534
0.000871042
0.000866691
0.000865703
0.000876304
0.000871073
0.000868287
0.000869237
0.00087836
0.00088717
0.000872444
0.00087766
0.000867454
0.123663
0.114007
0.0821055
0.102172
0.0628998
0.0566806
0.0877262
0.101213
0.062538
0.103982
0.0815359
0.110812
0.110235
0.0642657
0.110415
0.0996287
0.110708
0.0448119
0.000947831
0.00096482
0.000971585
0.000934938
0.000953582
0.000971169
0.000977138
0.000977725
0.000965994
0.00102871
0.000994203
0.000981977
0.000994963
0.0010098
0.00102787
0.00102215
0.000858349
0.000843933
0.000842485
0.000866005
0.000880627
0.000858778
0.000852106
0.000857808
0.000826872
0.000826341
0.000874237
0.000833062
0.000874072
0.000844519
0.000879874
0.000853162
0.000853964
0.000852972
0.000876534
0.000860566
0.000852227
0.000889183
0.000869312
0.000865792
0.000845044
0.000897986
0.000899786
0.000864238
0.000885826
0.000970971
0.000856333
0.000932412
0.000865215
0.000462811
0.000856711
0.000894148
0.000869596
0.000876429
0.000922735
0.000752962
0.000865272
0.000856324
0.000897134
0.000825593
0.000886761
0.000890138
0.000885009
0.00087976
0.000879168
0.000880807
0.000880817
0.000900704
0.000891897
0.000887052
0.00089008
0.000891587
0.000883819
0.000872978
0.000886694
0.000884871
0.000899611
0.000889057
0.000895926
0.000893466
0.0866354
0.0876992
0.0821667
0.0536657
0.0683721
0.0608802
0.0830681
0.0711743
0.072939
0.0467326
0.0475644
0.0725017
0.06646
0.0714939
0.0780799
0.106425
0.0790037
0.0960923
0.0897786
0.0957113
0.105211
0.090178
0.0968461
0.0901288
0.10846
0.0964437
0.10466
0.0917926
0.0476648
0.0481457
0.0476619
0.0819462
0.0944682
0.0009088
0.000909294
0.000896452
0.000946975
0.000913408
0.000909222
0.000863335
0.000886946
0.000887434
0.000879215
0.000882495
0.000895726
0.000897032
0.000892714
0.000877063
0.0801539
0.0633441
0.0589815
0.0559637
0.0952782
0.0534247
0.0765982
0.0956188
0.107947
0.000882198
0.000889091
0.000883067
0.000881961
0.000893578
0.000881887
0.000880819
0.00088701
0.000886695
0.000874409
0.000870697
0.000854104
0.000868503
0.000886246
0.000881728
0.000868507
0.0008447
0.000853894
0.000898037
0.000886672
0.000885097
0.000833443
0.000727343
0.00103726
0.000655544
0.000760051
0.00105514
0.00190529
0.000858592
0.000669311
0.000524786
0.00070234
0.000567537
0.000763218
0.00083218
0.000542085
0.000656981
0.00076203
0.000738278
0.00160965
0.000857877
0.00207017
0.000822159
0.000840934
0.000784906
0.00090426
0.000954639
0.00087039
0.00090293
0.000932625
0.000874366
0.000840192
0.000801618
0.000805351
0.000801709
0.000900133
0.000888168
0.000925027
0.000913829
0.000883039
0.000883059
0.000889795
0.000865295
0.000927607
0.000808736
0.000896638
0.000932087
0.000802201
0.00961371
0.0156856
0.0147692
0.0122663
0.00522121
0.0142546
0.000127908
0.00146629
0.0141616
0.00747169
0.0183939
0.0106222
0.00910258
0.00133559
0.00225945
0.00728083
0.00240081
0.00354526
0.00119137
0.00212302
0.00240891
0.00305022
0.00216659
0.00782321
0.00216613
0.00387499
0.0018132
0.00178053
0.00159162
0.00179021
0.00243953
0.00171866
0.00198298
0.00506942
0.0022714
0.0029913
0.00390241
0.00222635
0.00304574
0.00277571
0.00265918
0.00241245
0.00273661
0.00221771
0.000885376
0.000884854
0.000956177
0.000880984
0.000881327
0.00104922
0.000899367
0.000897228
0.000878183
0.00089281
0.00106499
0.000891867
0.000853954
0.000848349
0.000859792
0.000857291
0.000816912
0.000855485
0.000861948
0.00086195
0.000850193
0.000821905
0.000868356
0.000835402
0.000859394
0.000858014
0.0674899
0.051131
0.0584485
0.0711314
0.0594343
0.046847
0.0559032
0.0592752
0.0605352
0.0772973
0.0828982
0.0738761
0.0766376
0.00964582
0.0053045
0.00603094
0.00562883
0.00519219
0.00963586
0.00316628
0.0118846
0.00527901
0.00491142
0.00531544
0.0037514
0.00294841
0.00290467
0.00491768
0.0058886
0.00577242
0.0109445
0.00910457
0.0142094
0.00568162
0.00342663
0.0180316
0.0153611
0.033044
0.0120906
0.017689
0.0113583
0.00603613
0.0153252
0.00763529
0.00662433
0.00851019
0.00538801
0.00799878
0.00579511
0.0116184
0.00639354
0.00404341
0.00444262
0.0105035
0.00554026
0.00470681
0.00573813
0.00709188
0.224443
0.220639
0.176234
0.195234
0.239466
0.227975
0.214798
0.278744
0.264371
0.272002
0.308573
0.000837956
0.000828655
0.000836952
0.000838987
0.000833352
0.000836914
0.00083604
0.000832933
0.000833184
0.000832044
0.000836621
0.000838587
0.000833663
0.000556345
0.00155331
9.84499e-06
0.0055349
0.000526462
0.00118011
0.000482791
0.000539276
0.00120819
0.00136097
0.000965405
0.00109546
0.00113414
0.0010196
0.00165724
0.000921309
0.00108649
0.00104275
0.00149779
0.000932868
0.000889035
0.000955595
0.000732741
0.000775168
0.000652157
0.00044248
0.000986627
0.000694387
0.000678526
0.000921581
0.00067336
0.000781254
0.000785571
0.000842471
0.000844799
0.000796034
0.000757662
0.000838941
0.000825837
0.000858007
0.000840532
0.00085463
0.000842487
0.000864849
0.000855877
0.000836479
0.000830298
0.000842697
0.000847329
0.000931512
0.000852363
0.000862306
0.000927891
0.000924449
0.000939339
0.000914078
0.000913582
0.000933297
0.000942388
0.000925801
0.000935454
0.000930382
0.000917646
0.000935201
0.000913843
0.000136748
0.00103907
0.00106501
0.000550903
0.000807083
0.000903634
0.000875591
0.000975369
0.00092757
0.000907679
0.000917857
0.000713848
0.000473286
0.000908032
0.000960322
0.000693189
0.00102987
0.00062315
0.0015556
0.00192828
0.000644828
0.00396157
0.00551213
0.00394393
0.00380934
0.00730153
0.0064056
0.00529739
0.0091078
0.00979342
0.00748026
0.00925631
0.0115135
0.00710736
0.00730236
0.00885309
0.00994494
0.0074652
0.00941795
0.0770901
0.20296
0.0582161
0.0904973
0.0722042
0.159148
0.02909
0.0316108
0.161171
0.0286297
0.0980977
0.221333
0.11325
0.0841244
0.110531
0.0757958
0.0206446
0.0736338
0.120373
0.038224
0.150053
0.100108
0.0488141
0.0223477
0.0684466
0.135086
0.139788
0.00502086
0.00870826
0.00909764
0.0026351
0.00455417
0.0794067
0.0651442
0.0649007
0.00752691
0.11489
0.0204684
0.0989698
0.17838
0.135543
0.0837291
0.0913892
0.191412
0.0817341
0.133256
0.0443524
0.194806
0.175297
0.122373
0.140343
0.228692
0.20661
0.188514
0.19654
0.215816
0.195545
0.128624
0.162084
0.13419
0.131161
0.155558
0.283315
0.252471
0.18349
0.00826569
0.0124953
0.0175103
0.00997436
0.00728915
0.0103494
0.00461722
0.0125812
0.00429093
0.00963765
0.0192952
0.0171659
0.0152686
0.0126617
0.0134743
0.010541
0.0140844
0.00711946
0.020702
0.0153725
0.0701849
0.0765664
0.051036
0.0466007
0.050277
0.0377979
0.045326
0.0632903
0.0883808
0.0795416
0.0243993
0.0642221
0.0873191
0.0644202
0.0107023
0.00230852
0.00392348
0.000672714
0.000747369
0.000609352
0.00788281
0.000442957
0.00535791
0.00705943
0.00762475
0.00806584
0.000951474
0.000520816
0.000833842
0.00127012
0.0031928
0.00308419
0.102522
0.131248
0.123565
0.134976
0.159565
0.116
0.193402
0.0240891
0.198193
0.0758435
0.0457476
0.00919024
0.0425242
0.0566623
0.11838
0.0266718
0.127202
0.0821915
0.0342217
0.0444545
0.0112208
0.0397615
0.000781706
0.000833914
0.000449041
0.000521805
0.0007925
0.000790829
0.000789606
0.0007367
0.00077958
0.00086263
0.000754666
0.000775527
0.000725561
0.000710594
0.000724862
0.000656593
0.000729843
0.000789255
0.00078099
0.00072674
0.00132766
0.00428963
0.0109455
0.00093911
0.000261349
0.0006457
0.0115575
0.000113982
0.00324047
0.000823551
0.000830633
0.0046453
0.000769509
0.000812408
0.005061
0.250551
0.378164
0.280868
0.396393
0.324609
0.410926
0.396694
0.202354
0.00370677
0.0023266
0.00728203
0.00613749
0.0064363
0.00172445
0.00310545
0.00183779
0.00633483
0.0048936
0.00185861
0.0047102
0.0227114
0.0321774
0.0987926
0.0674386
0.0258855
0.0397428
0.0960331
0.0969968
0.0919543
0.0925416
0.0144713
0.0906861
0.0942094
0.0188936
0.072782
0.0452754
0.0463313
0.058385
0.000788475
0.00171369
0.00200736
0.00245514
0.00222156
0.000744048
0.00100547
0.00180734
0.00163975
0.00207659
0.00298917
0.00140957
0.00121442
1.50489e-05
0.00123397
0.00262032
0.00310764
0.00157257
0.0235862
0.0239803
0.0334441
0.0336961
0.031085
0.0321989
0.0186817
0.0229637
0.0264601
0.0363643
0.0350164
0.0242723
0.0418819
0.0247852
0.0351831
0.0357804
0.0324457
0.0224093
0.0218421
0.0327462
0.0359416
0.0202429
0.000919401
0.000912787
0.000925118
0.000937022
0.000917336
0.000929047
0.000922128
0.000910916
0.000919351
0.000927103
0.000933078
0.000926787
0.000926962
0.000921272
0.000925944
0.00091928
0.524607
0.523579
0.42413
0.510555
0.401609
0.549136
0.315095
0.288558
0.20423
0.194936
0.197256
0.205781
0.456558
0.233082
0.25578
0.207437
0.343837
0.337735
0.026277
0.0460016
0.0414241
0.0234475
0.0164372
0.0107957
0.0219245
0.0253645
0.0365054
0.0298216
0.0179792
0.0132849
0.011777
0.0142631
0.0250468
0.0182641
0.00221655
0.000931566
0.000704719
0.000713273
0.00111343
0.000760995
0.000771924
0.000774876
0.000555965
0.0005138
0.00305106
0.00222376
0.0041458
0.00012873
0.000682604
0.00056065
0.000648517
0.00069784
0.00172222
0.00340679
0.0505621
0.0508115
0.0470593
0.0309702
0.00949046
0.0302986
0.00343031
0.0256668
0.0315403
0.0420189
0.0105802
0.00980415
0.0195398
0.0233308
0.0124441
0.0134958
0.0157365
0.00786138
0.00832539
0.0115663
0.0197799
0.0163155
0.00573936
0.014535
0.00661558
0.00749729
0.00539431
0.0106792
0.0668475
0.0539414
0.0361011
0.0607939
0.0749989
0.0263004
0.0185529
0.0504794
0.0599587
0.0573653
0.0210083
0.0153002
0.0355423
0.0379918
0.0318843
0.0224578
0.0300408
0.0134381
0.0122156
0.00138466
0.0128262
0.0122172
0.0142219
0.0136046
0.010053
0.0117306
0.00594134
0.0050524
0.00687597
0.00437662
0.0157612
0.0154851
0.00895884
0.013628
0.0122222
0.0100359
0.0142831
0.00697324