/*--------------------------------*- C++ -*----------------------------------*\
  =========                 |
  \\      /  F ield         | OpenFOAM: The Open Source CFD Toolbox
   \\    /   O peration     | Website:  https://openfoam.org
    \\  /    A nd           | Version:  10
     \\/     M anipulation  |
\*---------------------------------------------------------------------------*/
FoamFile
{
    format      ascii;
    class       volScalarField;
    location    "20";
    object      omega;
}
// * * * * * * * * * * * * * * * * * * * * * * * * * * * * * * * * * * * * * //

dimensions      [0 0 -1 0 0 0 0];

internalField   nonuniform List<scalar> 
75457
(
32.5269
33.3333
25.0199
19.7164
24.5088
33.9439
27.444
34.4159
16.6874
16.5857
15.6959
18.8433
18.4471
16.7985
2.40069
2.38417
2.04108
2.40014
2.33078
2.0592
2.21934
2.25675
2.40903
2.38768
2.30182
2.57345
2.60187
2.30411
2.39703
2.5084
2.20017
2.53008
2.57245
2.06822
2.01904
2.11916
2.04466
2.65835
2.56907
2.05467
2.09552
2.03044
2.04685
2.68289
2.97798
2.39611
2.30546
2.66126
6.23941
3.49037
4.92247
5.73186
14.1427
4.74579
3.80383
4.00138
7.98465
8.87473
8.07475
15.6115
12.1794
6.71618
8.72854
7.18377
7.06481
7.99514
6.66568
8.28797
8.49796
13.9311
8.19964
14.5504
7.76384
7.73751
8.06388
7.14487
7.59184
13.9358
9.61891
7.43764
16.0639
10.6137
11.3791
7.70631
6.48313
6.16267
7.09594
7.66538
12.3465
14.3956
7.75558
6.89153
12.5413
8.01613
5.6959
3.37816
3.67807
3.9129
24.0978
6.85808
8.41704
11.0532
22.1317
20.0072
39.6231
41.1067
20.8303
18.6957
20.4333
7.23811
5.63296
15.7331
15.6783
13.4194
5.3196
9.85437
22.136
9.22143
8.61509
24.1998
6.0381
6.75739
6.70162
6.41777
7.66293
7.58485
15.3634
6.45625
11.4782
7.20228
6.86016
6.92597
6.56127
6.08074
3.33511
15.353
7.04525
5.46201
5.72237
24.7112
4.41105
5.39956
6.6563
4.34128
4.5643
5.98045
7.1033
8.24955
17.95
5.07523
31.9432
9.3917
5.11359
4.13886
8.98159
13.4809
4.3923
26.4504
5.32885
7.0327
26.6869
5.37733
8.10879
6.04725
6.26161
6.5339
6.22561
6.4012
5.79507
5.79375
6.07805
6.29574
6.0237
6.1452
5.96121
5.82231
8.69801
7.93262
7.59607
11.649
4.71388
22.3351
3.86749
12.1385
28.2093
5.16739
3.81268
9.62098
17.8859
39.5228
7.92649
7.9046
8.55401
12.9992
6.37662
24.5741
3.99039
4.58024
4.04643
4.38388
3.8863
7.43394
8.63464
12.843
6.20274
7.14598
12.8391
11.7546
12.6388
12.7624
11.1795
11.463
23.694
26.4411
9.59663
11.0388
25.329
11.0707
27.7199
25.8547
26.5193
8.52552
12.2245
23.3263
10.6616
11.4183
27.7509
13.1583
7.8682
20.0031
5.04476
4.98148
19.7168
8.34364
9.542
7.24248
9.34884
4.49854
4.79718
5.0403
5.28769
9.08624
21.639
7.20157
16.6032
10.1569
6.99351
7.34767
10.9515
24.8118
10.5266
21.9295
9.78954
19.7138
8.06463
14.0825
6.29306
4.55536
5.30553
3.25893
3.75178
4.0939
4.62484
6.06739
10.092
18.2389
11.9554
30.3669
17.3833
20.1674
26.8534
17.2111
6.02226
6.24949
10.1834
6.20074
10.5865
11.4605
17.4378
10.1949
9.48655
16.1946
9.75537
15.3438
7.42676
14.7066
6.79353
4.17907
4.16636
5.45536
5.03887
5.45426
5.19265
20.5607
14.9587
23.3607
15.5784
8.25441
8.18938
21.6933
8.5419
7.70807
21.7116
2.9848
3.24344
2.02445
21.7116
2.93537
2.40444
21.7116
1.72441
2.80694
4.2606
2.78889
8.21332
7.98341
4.3306
5.89586
4.99252
22.387
8.27272
4.02244
4.53269
11.7605
22.387
4.52638
4.64496
5.1817
8.11195
12.929
10.9732
9.7565
11.239
25.854
5.67928
5.84023
8.74532
7.90488
31.231
9.90825
8.40803
29.7905
6.37445
5.95011
18.5105
6.8991
10.0501
6.01346
18.5105
5.93542
5.88742
8.30799
6.7271
4.70256
8.89387
8.14237
9.96605
27.4327
8.22766
5.49362
15.5838
22.6606
15.9377
22.1874
4.50909
4.22127
5.47163
5.12944
7.41989
6.54051
11.1405
6.31467
6.9706
8.83371
23.7285
12.8449
11.6661
7.74012
19.0452
6.67444
6.69804
7.37466
15.9208
15.9208
18.3092
4.19588
8.64033
8.78418
4.84715
4.2766
8.21544
4.52232
4.572
4.42166
4.4119
4.58882
4.61404
4.51119
4.56877
4.59919
4.64575
4.52316
4.43201
4.51782
4.4857
4.44987
4.55795
4.44372
4.41631
4.36179
4.36053
4.43971
4.37625
4.4556
4.38774
4.49351
4.47606
4.36092
4.42474
4.40902
4.46035
4.44872
4.25653
4.32134
4.33697
4.37352
4.31366
4.35001
4.38601
4.43506
4.26086
4.3045
4.26068
4.255
4.32312
4.37047
4.33697
4.41972
4.3434
4.36758
4.33953
4.37174
4.32858
4.35925
3.72749
2.83689
2.85308
2.84127
2.83626
3.54245
2.8657
2.84793
2.73402
3.80729
2.68485
2.78159
2.7842
2.83449
2.65208
3.41778
29.0797
16.9399
16.3654
19.9875
13.0813
13.2015
13.0211
14.9586
13.2056
13.5706
29.1378
31.3579
27.088
18.4766
14.0187
11.2726
3.5728
3.51536
3.77568
3.91518
3.71198
3.63076
3.56097
3.51429
3.60281
3.63286
3.66346
3.85462
3.82808
3.60524
4.68933
3.72906
3.64897
3.65503
4.55616
4.61368
4.57982
4.50851
4.4781
4.51586
4.52841
4.54448
4.5431
4.52557
4.5573
4.6282
4.54485
4.58504
4.60743
4.62456
5.83195
5.59729
5.91713
5.59376
5.36347
6.01462
6.36209
6.03742
5.8644
6.0377
5.8811
5.75844
6.01487
5.74018
5.81258
6.24724
6.34154
4.71555
4.86872
4.67456
4.70571
4.62809
4.59606
4.68416
4.80629
4.60636
4.50319
4.72757
4.55961
4.49681
4.5095
4.57924
4.44547
4.62338
4.61113
4.03687
4.48019
5.36345
3.57222
4.74018
3.96802
4.56519
3.76918
3.63605
4.24917
5.38069
4.81219
3.97966
4.31453
3.99184
5.18739
5.31395
2.21669
2.17043
2.20433
2.42182
2.07897
2.50748
2.22492
2.17942
2.18752
2.6149
2.28416
2.166
2.21025
2.15418
2.68417
2.64985
2.85665
2.5819
2.94355
2.9237
2.93047
2.73346
2.6661
2.96978
2.98895
2.95088
2.69662
2.5807
2.57705
2.84723
2.69638
2.79706
4.2523
4.27022
4.2943
4.49582
4.54423
4.29107
4.29444
4.49475
4.42348
4.46903
4.27003
4.53023
3.99277
3.42858
4.31952
3.26979
4.22667
3.90768
4.16676
4.14285
4.16255
2.96947
2.8609
2.96511
3.28692
3.28125
2.98744
3.29726
2.03988
2.78411
1.98791
2.5387
3.94846
3.64129
4.77584
3.48009
3.29561
2.63652
2.36934
2.14364
4.12102
2.30381
2.44281
2.77119
3.64841
3.62822
3.65295
3.68644
3.80672
3.7038
3.65072
3.60415
3.59032
3.67832
3.70886
3.68207
3.69688
3.76464
3.76901
3.68123
3.64514
3.71931
3.59209
2.51743
2.49116
2.22381
2.8145
2.45352
2.73448
2.63582
2.31922
2.49887
2.18
2.69534
2.57279
2.45706
2.46873
2.99567
2.7491
2.82693
2.92134
2.74984
2.83898
2.59563
2.52314
2.60526
2.416
2.45982
2.75463
2.57168
2.50911
2.55561
2.34193
2.40081
2.53472
4.99693
6.20296
6.36114
3.93259
3.94014
5.38115
4.68131
3.33586
3.65497
6.9136
5.5597
5.52503
5.52152
5.98574
6.0376
6.09599
6.89997
6.03076
6.9473
5.52241
5.66826
6.56972
8.3567
8.26145
7.11366
8.12857
8.35834
7.33896
5.92112
6.68113
6.60922
6.43983
2.73389
2.77321
3.00292
2.86383
2.86526
2.66567
2.7999
2.83233
2.81721
3.48557
3.9051
4.3587
2.62158
3.80517
5.18729
3.58771
4.42516
2.16134
3.3567
4.67924
5.90415
3.23536
3.6728
10.0219
7.39663
4.04871
7.28846
4.40657
4.82625
4.59227
4.80147
5.09428
5.23798
5.81571
6.35185
6.77927
6.87147
5.82212
6.94503
6.27988
6.8917
2.08503
2.14018
1.87111
1.90057
1.96336
1.914
2.03724
2.06161
2.49026
1.99956
2.18096
2.2474
1.86158
1.94491
2.31376
1.93073
2.17299
2.14022
2.05556
2.46003
2.543
2.01244
2.61448
2.33058
2.79918
2.35448
2.33159
3.00695
2.85203
2.21556
2.58911
2.83844
2.64797
2.61234
2.95219
2.23596
2.42051
3.16129
2.70001
2.32156
2.0849
2.11231
2.78796
3.5386
2.28823
2.3754
2.92444
3.32059
2.32279
2.31358
2.55305
2.24857
2.26474
2.74575
2.85908
3.27445
2.31195
2.2913
2.51923
3.28651
2.36844
2.29985
2.55921
2.27055
4.13008
5.51649
2.17235
2.3837
2.72268
3.12088
2.39344
2.5364
2.97948
3.59781
4.21381
3.83186
2.55091
2.55028
2.31357
2.93882
2.61249
2.71142
2.69339
2.48251
2.54896
2.52863
2.42885
2.35439
2.49445
2.48865
2.57269
2.518
2.36217
2.59577
2.6552
4.4432
4.72931
4.83579
4.53068
4.68475
4.73548
4.84677
4.60609
4.69622
4.80869
3.04162
2.67463
3.02497
3.39118
2.54795
2.53049
3.35248
4.04201
2.60648
3.29813
3.1655
3.17726
3.55183
2.60033
3.43894
3.18143
2.53208
5.75689
6.07281
5.91434
6.29055
5.9853
5.67688
6.22174
5.91869
5.75467
5.71946
5.8565
5.73991
6.0308
5.73221
6.11312
5.6066
5.70277
5.51321
5.67692
5.54127
4.7685
4.83196
4.74938
4.77859
5.02281
5.15243
5.60126
4.91653
4.92574
4.79588
5.47852
5.53016
4.76018
4.86491
5.09203
5.81686
9.28512
7.85996
7.03186
7.67029
11.8258
9.28411
12.0596
11.6062
9.63499
9.35941
11.8717
10.6733
10.3496
2.91604
3.14322
2.93501
2.77668
2.69501
2.74587
3.08064
2.9691
2.78026
2.80734
2.52819
2.83612
3.85208
4.2518
3.98688
3.8969
4.18581
4.09856
3.76515
3.73417
3.70132
3.77132
3.79725
3.76667
3.8519
3.82448
3.91777
3.84988
4.0237
3.8542
3.84791
4.12015
4.1061
3.87972
3.87535
4.12961
3.04415
3.54728
3.93282
3.6145
2.83504
2.83864
3.49312
2.67169
3.07355
3.00654
2.76745
2.74989
3.03858
2.82273
5.28865
5.72341
5.82859
5.41766
5.34706
5.51363
5.00597
4.76282
5.23387
5.17739
5.33241
5.09628
5.83926
5.4559
5.65949
5.51283
4.49325
4.9146
4.63116
4.40207
4.39297
4.47898
4.41395
4.38368
4.41224
4.50476
4.58599
4.47864
4.55866
4.5667
4.80161
4.64205
13.4821
11.61
12.6887
11.9235
14.4521
11.4928
5.81002
6.43489
5.95818
6.35312
6.13158
6.89669
8.78303
10.6742
11.161
8.44296
10.3126
10.4388
6.84535
9.95965
6.67513
7.6312
7.34509
7.07508
6.83786
7.15422
7.73167
7.37617
6.90115
7.31419
7.38477
7.05773
7.49297
6.96567
7.13372
5.01514
5.33838
5.32638
5.37025
5.9819
6.35268
7.21326
6.09973
7.55639
7.99793
7.54726
6.73247
8.56343
9.06788
3.7359
4.13558
3.6286
3.72001
3.59828
3.80877
3.42494
3.23914
3.95372
3.47778
3.6146
3.23136
3.39022
3.22213
3.24685
3.19793
2.39249
2.43698
2.33429
2.35959
3.61011
3.70009
2.20214
2.87971
2.90642
2.201
3.51063
3.3095
4.12607
3.24876
3.26189
3.76586
3.66537
4.39344
4.52122
2.66742
3.37124
3.05617
2.85623
2.75684
3.85792
3.16453
3.34973
3.58487
3.41625
2.59766
2.62916
2.9247
2.68372
3.55708
3.33849
2.77186
3.07535
2.85669
2.96474
2.63411
2.74058
3.07166
2.78482
2.78379
8.25821
7.18729
7.20048
8.12645
8.51351
7.54489
7.38026
7.57459
7.54178
7.46914
7.61202
7.44453
8.21711
7.9851
8.073
8.32625
8.0394
7.83587
7.398
7.8568
3.1188
3.08012
3.04347
3.0129
3.04652
3.20395
2.95938
3.04666
3.1819
3.05458
3.02291
3.0168
4.79602
7.09655
24.5482
5.42925
18.8272
6.40662
11.4825
20.9183
22.5261
5.15477
11.6363
14.3997
24.1459
6.68116
11.4609
3.97805
8.40149
5.28885
4.70556
8.24202
9.77663
7.71985
4.65474
3.95997
3.89217
12.4497
14.4077
13.7704
15.3377
3.8529
3.99942
3.84867
3.69162
3.82174
5.58459
6.37101
5.20527
1.97407
2.23905
1.86177
1.96117
1.84479
1.823
1.82551
1.83831
1.84594
1.84524
2.01251
1.89712
1.88875
1.85627
1.85506
1.86312
5.71276
5.91388
6.32006
6.36795
6.92616
7.13971
6.1818
7.21861
7.30892
7.63181
8.34184
7.44928
3.83684
11.6911
13.6845
9.7162
12.531
4.6023
2.81055
9.65569
2.89816
8.52721
16.7949
4.82712
8.12833
4.1228
9.92497
19.003
10.1105
2.71037
4.43346
5.24728
19.9495
4.55428
6.64231
8.03807
12.7123
4.14887
8.05108
3.71599
21.194
5.85402
7.1016
25.3535
5.36744
8.46907
7.77695
7.715
16.2271
5.61101
6.57176
11.1614
15.1813
4.47126
3.96913
8.64232
3.86901
8.76053
16.1532
8.5565
3.48553
3.88043
14.9898
9.32512
3.8329
3.53782
4.38761
3.65538
2.617
3.07708
2.77966
3.73446
3.87536
2.34485
2.47712
2.50123
3.45307
4.27135
2.85259
3.08098
2.4708
3.39797
3.5413
4.34681
3.67761
4.09663
4.13249
3.91615
3.95316
4.68089
2.78936
3.62887
4.25559
3.98723
5.9641
8.5512
5.25586
11.8937
11.577
10.9845
10.7639
12.276
10.6201
10.1886
10.7765
11.1093
11.0525
12.3951
12.9156
10.2054
10.4342
10.8134
11.2199
10.9094
12.3857
11.6152
10.8027
8.16359
10.1725
6.95617
6.7691
10.9487
10.9806
18.2415
15.8451
6.61302
7.01259
8.0726
10.3967
11.461
15.3511
8.13506
10.173
6.52316
6.59639
7.36601
5.17019
4.46906
4.38151
4.05089
11.8601
15.7081
10.197
12.879
4.94398
4.44669
11.6947
7.45683
4.76048
7.72121
14.0294
8.57755
6.5472
11.5451
6.58778
11.67
2.32729
2.29964
2.73021
2.36524
2.69423
9.1209
11.6413
5.10057
5.49642
3.78755
3.50111
2.71298
3.52413
3.29624
6.43818
3.16918
2.61586
2.35894
3.22764
6.89598
6.0203
6.58463
6.38163
6.75852
9.62963
7.29822
6.6666
6.46939
8.74551
9.76003
11.1801
10.3183
7.82611
7.04904
8.30576
24.4816
22.8351
24.0493
26.0454
30.4434
27.4811
30.3362
43.4265
40.9922
36.5485
32.305
31.6983
44.7039
33.7534
32.5197
31.2405
38.9021
38.7574
39.4794
29.3604
7.94876
9.57969
7.82198
10.1053
6.26305
6.67641
4.25279
5.27376
11.9409
8.13492
16.9998
9.29155
4.66749
4.4455
14.0645
11.0465
16.9545
8.78896
19.0187
6.5291
30.6397
37.5215
41.4722
55.8866
42.0921
29.8298
24.6173
39.5091
47.1112
41.9993
45.3375
35.6073
62.5727
41.0425
79.0122
80.9935
55.2752
3.2172
12.1474
7.00006
32.2931
6.1009
5.89437
8.57764
7.78939
39.8618
7.62802
1.96337
21.4276
12.1224
11.5938
15.2064
14.5429
13.1313
11.6023
10.9357
10.6824
14.0155
15.1396
12.5951
12.9306
12.8394
14.1858
11.5742
12.8931
12.8144
12.0089
15.4355
11.2153
11.3253
5.7996
5.68879
5.48545
5.62306
6.31509
5.86425
6.30245
5.73455
5.51036
5.62991
5.58526
5.4677
5.40884
5.36122
5.82159
5.67828
5.59378
5.49442
4.82514
5.26209
4.81301
4.98575
5.0933
6.31478
4.77677
4.95684
6.08279
6.96042
5.13578
4.84939
5.07756
5.91347
5.16137
6.0163
6.43252
6.43415
6.06151
5.68229
6.54465
5.57345
6.33629
6.20654
6.35287
5.612
6.23671
6.21967
6.25685
3.13834
3.21149
3.17123
3.30813
3.07508
3.03232
3.15698
3.13233
3.47695
3.62912
3.127
3.1432
3.18903
3.29182
3.49575
3.42284
7.12322
7.17635
7.31262
7.12084
7.08574
8.11456
6.97125
7.06747
8.47857
7.27842
6.59599
6.42335
7.12243
7.8561
7.68866
7.22412
7.25948
21.8372
21.9963
16.7873
18.1162
19.6366
21.9346
25.1975
25.5057
18.6401
19.7753
25.5624
30.1077
24.8677
26.6352
23.7591
25.152
24.1289
7.29196
5.82778
5.38678
7.83896
5.24488
13.9417
20.4041
5.3625
11.4074
11.7121
8.92461
10.2478
11.6466
5.83569
3.16252
10.1113
26.5245
4.00528
8.27159
6.79128
5.63483
4.63666
4.46845
6.87173
6.5604
5.27335
5.16365
4.92522
4.81602
4.777
5.00004
4.65025
4.49198
4.85753
4.59176
4.63804
4.86029
5.25878
4.684
4.68204
3.96914
3.60086
3.28336
3.59551
4.17084
3.44585
3.36168
3.39341
4.41333
3.33804
3.48167
3.71567
3.87115
3.34587
3.22701
3.15604
5.4244
4.42559
4.81941
5.72179
4.84158
4.39034
8.97668
5.90479
6.24743
6.16965
14.1358
8.28859
5.01352
9.17564
4.44428
7.26444
9.05969
13.9951
16.5238
10.3109
14.686
17.094
10.7572
15.4491
11.3079
7.89547
5.86176
4.5617
14.6945
9.78858
11.1495
3.04351
4.36477
11.5068
3.90422
10.4293
9.51806
3.80775
3.50926
3.28925
8.1151
5.53267
5.49703
5.42386
6.50767
5.56222
5.54668
6.34342
5.67229
5.5515
6.3554
5.58083
5.32902
7.60708
6.86125
10.355
6.07772
7.02117
8.61906
10.5817
9.15637
7.90847
7.04273
5.55502
4.42695
4.51414
4.69741
8.38683
6.95188
7.2557
6.89672
6.50029
4.1918
6.17696
7.60949
7.68665
18.207
17.6158
6.37017
6.44483
6.90356
20.6307
8.46008
12.1887
7.49263
3.31784
9.04477
14.8025
6.13742
4.83064
4.05825
9.67752
8.43747
14.3135
16.377
6.69828
9.15032
10.0128
4.15668
6.1049
5.65574
4.39909
4.38369
9.52876
8.61639
10.0372
15.719
6.92899
10.2728
4.41128
4.10534
7.72536
4.26482
5.75094
6.06721
5.19111
5.75953
5.16263
4.95277
4.95535
5.44719
4.69891
4.47516
4.18963
4.14973
4.42255
4.05245
4.0295
4.3696
4.32744
1.9761
2.0054
2.03167
2.0081
1.99197
2.13249
1.95665
1.94216
1.99896
1.97244
1.94078
2.13143
1.99737
2.06238
1.97105
2.07419
1.9816
2.01092
2.02572
2.35695
2.18536
2.00698
2.52494
2.25009
2.20291
2.1776
1.97252
1.769
1.69317
1.98003
2.06043
1.66309
1.66297
1.84144
1.88938
1.65885
1.70278
1.71657
1.72288
1.69785
7.76891
7.34033
8.39955
9.04038
7.92565
8.69921
8.11528
6.96842
7.62816
8.40177
7.24685
7.12825
7.18903
6.68872
9.41393
7.89515
8.84354
3.94792
3.46605
3.95929
7.66423
6.33521
3.46879
3.75914
3.74616
3.30512
4.62835
4.96303
6.93233
3.22359
3.14366
5.25812
6.67988
2.65686
2.80156
2.78416
2.77099
3.01831
3.93793
2.94561
9.64562
7.49187
3.46106
3.21023
4.81524
5.6224
8.21684
6.04257
6.25426
7.13091
7.95932
15.192
20.9633
10.7152
20.0467
4.39108
7.40936
4.18129
1.81074
1.76674
1.81741
1.77156
1.72725
1.83711
1.78571
1.75468
1.98361
2.06587
1.94063
1.87237
1.79719
1.90629
3.21945
3.19034
2.86134
2.83545
4.09797
2.63527
2.81455
3.80602
4.44702
3.82437
4.71632
3.50559
3.14064
3.9371
2.54254
7.28901
3.9369
19.3013
19.3013
4.02204
19.3013
5.43448
5.26506
10.1581
5.88223
6.7612
5.35833
4.32277
4.10468
7.59677
4.41214
4.55825
5.88345
20.3902
24.2413
25.6171
20.3906
21.2811
21.4985
23.7108
19.631
23.476
19.5387
10.0211
10.6932
7.68469
11.8605
4.30645
3.91579
3.5174
4.81234
7.18376
8.77722
10.4958
10.0417
8.80147
3.69733
3.87363
2.77733
8.00824
9.53081
3.86419
3.76614
3.65841
4.0592
4.41756
6.6328
4.39104
4.74555
5.20904
12.2309
5.06886
3.67405
4.45974
12.2309
7.46711
12.2309
5.14571
3.37882
3.81314
5.66059
5.34294
3.77063
7.99642
7.87188
7.45925
8.0013
7.59602
7.28379
7.66936
7.53801
7.09083
7.45189
7.1576
7.50129
7.7802
7.52918
7.15652
6.78237
7.02038
6.74295
7.22919
7.93229
7.90433
7.52123
7.7704
7.32395
7.22602
6.54624
6.06092
6.36013
6.12725
7.2083
7.27353
8.24841
7.86948
6.06541
6.03461
6.16355
7.14695
29.2613
29.9926
24.982
23.618
38.8025
31.9795
36.7128
30.9436
29.0111
45.8813
35.6808
37.5549
37.1951
44.0151
58.1716
55.9111
4.68266
4.88402
4.87889
4.66025
4.62215
4.66641
4.69047
4.61103
4.81168
4.80588
4.55105
4.71979
4.56257
5.44925
5.18813
5.48979
5.47004
5.38883
5.09823
5.76445
5.53652
5.71448
5.47365
5.63293
5.75688
5.34385
5.49729
5.36435
4.87818
4.951
4.75416
4.82724
5.15786
5.0679
4.73662
4.76277
5.10708
4.92062
5.00977
5.04429
4.9346
4.95617
5.09134
5.26762
9.95984
9.91255
9.72965
9.10428
9.25625
9.61267
8.94582
8.78803
9.2302
9.37283
11.2156
11.0223
9.50601
9.18866
9.32434
9.40448
10.8555
9.75824
9.91611
9.73133
8.26959
8.0967
7.70466
7.31664
7.93929
7.7501
8.58667
7.91142
8.83023
6.62782
7.07784
8.67479
7.40167
8.15449
8.66406
9.66547
8.96313
8.85369
9.84799
10.032
10.4398
9.36741
9.76364
10.7406
9.59652
11.4205
12.2083
11.5663
9.75248
8.96553
10.2972
12.5747
11.052
12.8419
11.9785
12.1893
10.1448
13.5951
12.1921
11.1583
10.714
11.5616
12.4179
9.96788
9.72738
9.56488
10.3407
11.1158
3.39063
3.25483
3.21933
3.18435
3.56596
3.54104
3.49435
3.61546
3.64589
9.17802
9.57389
8.48727
8.5226
9.15339
8.35623
8.2658
8.70301
7.93644
7.77687
7.86332
7.82761
8.09753
8.878
8.34351
7.90006
8.19064
8.3783
8.7094
9.23875
7.88259
8.60752
3.75214
3.80473
3.74617
3.75778
3.77463
3.91426
3.81088
3.6472
3.79609
3.703
3.79489
3.66753
3.80799
3.62547
3.63617
3.67022
3.70779
3.6855
3.70247
3.68664
4.98115
4.76997
4.87113
4.67882
5.01604
4.76786
4.84545
4.94313
4.8755
4.78283
4.81117
4.62388
4.69685
4.74014
4.69953
4.93265
4.83824
4.95227
4.63396
4.82205
4.68823
4.92167
4.65452
4.5109
4.59819
4.61975
2.79943
2.9918
2.99122
2.84167
2.64624
2.69628
2.47586
2.58438
2.95997
2.54698
3.01808
2.74565
2.68516
2.41816
2.46159
2.68738
2.48839
2.48533
2.47768
2.49541
2.51227
2.5598
2.55224
2.69444
2.49353
2.5552
3.2317
3.28273
3.37165
3.36433
3.15104
3.18192
3.20418
3.66619
4.12946
3.66452
3.6027
3.22453
3.27922
3.3
3.36274
3.33169
3.47813
3.28025
4.22669
4.30562
4.47538
4.25541
4.16504
4.39686
4.41353
4.13279
4.14876
4.25465
4.33658
4.15246
4.08923
6.45798
6.97849
6.53062
6.21902
6.5402
6.93256
7.44603
6.80004
6.75373
6.42531
6.58553
6.99687
6.63797
3.66336
3.1196
3.48525
3.63311
3.42171
3.23373
3.44486
3.48389
3.45333
3.71679
3.72768
3.60246
3.68671
2.52847
2.24223
2.24452
2.26007
2.2699
2.50164
2.38083
2.49784
2.26903
2.27115
2.3419
2.34753
2.26258
2.26497
2.3146
2.27985
2.22173
2.27172
2.35628
2.37882
2.27997
2.29889
2.49613
2.47875
2.75206
2.34855
2.43533
2.44066
2.3428
2.4413
2.37626
2.56259
2.54042
2.4927
2.47744
2.50996
2.56789
2.55323
2.47173
2.44775
2.52853
2.59909
2.50785
2.53609
2.61443
5.19067
5.45193
5.59844
5.19194
5.33345
5.3006
5.47801
5.0905
5.15437
5.3138
5.09475
4.74868
4.65734
4.92141
5.10724
5.30398
4.85198
5.10108
4.9391
5.1565
5.17665
4.87004
4.88445
5.01097
5.57392
5.65536
5.72309
8.26239
5.70488
5.34736
5.44633
5.44043
5.5481
5.67175
4.60146
5.0271
5.21183
4.88382
5.94196
4.50054
4.86947
4.94377
5.39131
4.82455
5.09786
4.82872
4.87273
4.92822
4.69466
4.63534
4.67221
4.85701
5.11102
5.02015
5.21834
4.82744
5.06449
4.50743
4.57117
4.32536
4.36116
4.51719
4.65042
4.63287
4.67573
4.97154
4.97508
4.66034
4.58074
4.72107
4.82842
4.76535
4.67374
4.8306
4.82236
4.76749
17.117
15.8003
19.7464
14.217
14.5045
18.3713
19.8419
16.3824
18.5644
17.3098
14.4904
18.6673
15.6224
4.13468
4.206
3.92749
4.01511
4.06954
3.86852
3.82541
3.99881
4.02178
3.92228
3.8667
4.21427
4.11222
3.84375
4.0621
4.02768
4.50438
4.06691
4.63601
4.43509
4.0245
2.40476
2.41811
2.40251
2.4525
2.44324
2.41901
2.49296
2.49929
2.43231
2.36504
2.51888
2.5457
2.36696
2.41977
2.37942
2.42776
2.46793
2.47164
4.39868
5.36981
4.33383
4.68389
4.72693
5.05857
3.74618
3.63777
5.0698
3.76041
4.2272
5.52122
4.37395
4.15674
4.1795
3.95268
3.70817
4.33403
4.70815
3.63919
4.76079
4.16756
3.84798
3.66047
4.24164
4.78534
4.82125
1.77191
1.83611
1.84903
1.74031
1.88157
8.08483
8.26226
8.55176
6.41228
10.1915
6.17997
11.2616
13.4658
14.617
11.9565
16.0153
12.9648
11.2315
13.5809
7.76455
5.8858
5.72534
6.23887
6.06234
4.74836
4.11939
4.53366
5.41495
4.8135
4.07804
3.81083
5.48128
6.11861
3.90446
3.90796
4.33309
4.45096
4.34568
4.90908
6.3159
7.28141
6.54559
9.68523
12.7058
2.2855
6.8863
3.41127
4.40397
18.9507
31.1025
21.1215
20.8971
9.81056
4.56437
7.94588
19.8091
18.2746
6.90237
4.96442
5.21598
4.27849
4.09315
4.22759
3.90095
4.02266
4.55963
5.66998
5.29463
3.6047
4.38071
5.17335
4.48992
5.1893
4.01354
4.88078
4.74003
3.70938
3.77816
4.6458
3.47263
4.57989
5.03899
5.38458
5.1498
3.53841
3.42044
3.5656
3.61679
4.08789
4.04184
9.54578
9.99718
9.90687
9.32238
9.44535
9.50652
11.439
9.1246
9.99397
10.7023
6.77925
6.69719
6.88937
7.86903
10.1746
8.18948
10.2791
10.1056
6.91703
8.05285
5.18454
7.02237
3.63388
3.62501
3.60278
3.56637
3.57071
3.50617
3.58594
3.62039
3.59149
3.59454
3.53882
3.49354
3.48938
3.59969
3.57685
3.52732
3.55501
3.52718
3.44481
3.49265
5.72309
5.92847
7.03581
4.65169
5.61645
4.74737
7.13818
5.09198
5.47883
4.46093
4.52651
5.4369
4.67684
4.52413
4.87007
9.1447
8.69684
8.6934
9.11218
10.0697
8.03412
9.40372
9.34573
3.03391
3.15109
3.12062
3.14678
3.10542
3.10025
3.13941
3.22693
3.06409
3.06328
3.1679
3.08185
3.57568
3.67318
9.85533
5.40978
3.40721
4.04496
9.34722
6.95923
9.58844
10.0745
15.2391
7.52478
11.5522
17.3949
7.17784
4.47049
4.45551
4.88983
2.99505
3.04219
3.00794
3.02185
3.08558
3.03977
3.00076
3.16692
3.08604
3.07773
3.1286
3.18812
3.05536
3.04148
3.07055
3.17661
3.22562
3.10577
1.89108
1.8941
2.04836
2.09542
1.95569
2.04609
1.8743
1.89474
1.94335
2.16819
2.01855
1.93162
2.36915
1.96542
2.01289
2.02919
2.03947
1.92422
1.9295
2.10125
2.02922
1.91098
15.827
14.4478
16.319
18.9278
15.169
18.0759
15.9099
14.3575
17.0395
18.8474
18.4905
17.0451
16.7714
15.6481
17.0035
15.2602
6.7078
6.47998
6.38759
7.09693
5.96375
5.80954
6.66417
5.77432
5.24282
5.43214
5.67225
5.54212
5.66018
5.20843
5.38919
5.63237
5.34718
5.36802
2.26092
2.67931
2.64876
2.27483
2.16241
2.06054
2.42326
2.49579
2.39749
2.27504
2.19286
2.2102
2.11493
2.0658
2.22178
2.11994
3.89839
3.86941
3.94695
3.88823
3.73548
3.8926
3.87404
3.88707
3.91021
3.89781
3.8613
3.91419
3.90157
3.87492
3.8249
3.81808
3.78576
3.78337
3.73118
3.74093
8.81801
8.61725
7.6242
6.59534
5.00548
7.13289
5.73555
6.23749
6.69562
7.94979
5.07308
4.84481
5.85672
6.0581
5.32526
5.59715
3.79536
3.90869
3.41156
3.48627
3.10383
3.50788
2.82793
3.35521
2.85722
2.64721
2.79365
2.64721
3.50928
2.93105
2.4272
3.18349
3.94376
2.10465
2.0352
3.36078
3.15468
2.89161
2.00445
1.92082
2.5825
3.01818
2.23236
2.12427
2.54119
2.82591
2.83479
2.8474
3.07079
3.11652
3.06292
3.12747
2.80775
2.8797
2.69143
2.76504
2.79329
2.74875
2.97806
2.97269
2.72686
2.86953
2.94282
3.76697
4.04044
3.39639
3.12488
4.53148
4.12198
3.4986
3.4915
3.92229
3.10879
3.15419
3.06044
3.07882
3.22079
3.24502
3.09306
3.20572
3.16087
3.64152
3.35389
3.21422
3.23922
3.30481
3.31351
3.27214
3.20653
3.32756
3.30791
3.24761
3.32324
3.239
3.25372
5.93091
5.6315
5.69576
5.83253
5.57002
5.75205
5.85402
5.77323
5.6876
5.70702
5.68613
5.52805
5.51046
5.51633
13.3022
13.6481
17.8938
17.484
18.3762
18.4895
13.2148
11.837
15.4289
16.3648
13.5948
16.5858
14.4317
15.0421
1.92111
1.96391
2.0083
1.98962
2.25614
2.38775
2.28636
2.4264
1.99781
2.20373
2.16312
2.162
2.2726
2.14702
2.02567
4.83886
5.64847
3.89774
2.39131
4.20711
5.40754
5.94249
3.60436
3.98563
3.62921
3.6778
4.01179
3.69727
3.75462
3.61962
3.47621
3.74458
5.59306
6.00287
4.80504
4.85498
4.09421
3.81424
4.55578
5.14897
3.81886
3.81603
4.75871
3.76364
3.66662
3.69459
3.5755
3.5991
3.56214
3.69558
3.61869
3.57721
3.6389
3.44605
3.04894
3.07521
3.37278
3.45662
3.54002
4.23471
3.05831
3.01071
3.01468
3.53224
2.93891
2.92023
3.99296
3.73349
3.38869
2.88849
3.42531
2.59802
2.43189
3.59431
3.4137
3.40675
3.16596
3.65143
2.37445
3.04365
2.49605
3.44713
3.71957
3.18383
3.49829
3.84206
4.05602
3.47883
4.04217
3.80624
4.1721
3.96065
4.281
4.24391
4.14033
3.45037
4.04901
3.22907
3.27305
3.94561
3.73644
3.59997
3.42196
4.07811
4.11376
4.17769
4.11153
3.9789
4.09378
3.99607
4.03002
4.03614
4.02052
3.95663
3.97791
3.97378
3.9288
4.03053
4.03805
3.96769
3.93582
3.9453
3.91736
6.89387
6.59381
5.31528
5.70531
7.32184
6.25077
5.53432
6.56315
4.93796
5.05698
5.02413
6.7009
7.84271
7.43158
7.49964
7.55279
7.6672
7.45857
8.02052
7.87458
7.33386
7.36766
7.05199
7.10804
7.03889
7.95751
7.65512
2.2845
2.35525
2.30375
2.27974
3.0452
3.02684
2.96539
2.81895
2.83633
2.46917
2.67443
2.21045
2.23201
2.59409
2.57987
2.44208
2.87775
2.86955
3.30242
3.08171
2.93335
3.83177
3.80501
4.29297
4.1067
3.55846
3.94855
3.70277
4.03474
6.90419
6.13509
6.26819
5.89459
6.45663
7.90877
5.99126
6.07708
5.90599
6.11916
6.59624
8.08267
6.14135
14.7485
15.772
15.2258
12.9079
13.911
12.9812
11.9917
9.27972
9.76222
15.7954
15.0085
16.0508
16.201
9.69023
9.69318
13.4847
11.5944
10.1031
10.8303
13.5674
4.76008
4.73856
4.63289
4.71648
4.53792
4.46939
4.94809
4.59093
4.65674
4.5831
4.93897
4.65352
4.66954
4.91505
2.68594
2.06417
2.11514
2.11901
3.69694
5.5587
2.94621
2.72966
3.44194
3.94253
2.14898
2.37047
3.22385
2.77679
2.02859
3.14076
2.54329
2.20178
6.29741
6.8202
5.2831
5.21676
6.29961
6.66048
6.23673
5.35152
5.34168
5.50971
5.50848
5.2322
6.36187
6.77735
7.13754
6.11909
6.51678
5.81023
5.8262
5.34695
29.8249
6.87216
13.9914
7.02716
9.34017
2.59103
2.54152
2.76719
2.89748
2.38703
2.49604
2.41352
2.36048
3.03811
2.80412
2.72209
2.69569
2.37004
2.53811
12.2135
12.3716
12.9424
18.3908
15.807
18.2624
6.15612
7.65873
11.7353
15.5322
6.27852
4.76608
4.87369
4.95682
4.8882
4.62664
4.64224
4.7607
4.73896
4.8673
5.01366
4.87827
6.94094
7.05292
8.2703
7.87773
6.60934
6.17413
6.20647
7.68951
6.80689
6.43958
6.49435
5.93967
7.68953
8.28192
7.53344
5.60412
5.72195
5.50709
5.44369
5.62842
5.50925
5.22639
5.32979
5.28284
5.28618
5.53382
5.79249
5.39901
5.50351
5.43949
5.39052
5.69613
5.8326
5.40858
5.62935
5.5147
7.84527
7.46736
7.49384
7.07731
6.83445
6.38382
7.67729
8.15128
7.2
6.51402
5.93756
6.84435
5.9243
7.4138
5.90067
7.06442
6.44402
8.27345
8.21702
7.93008
7.8091
8.50898
8.90671
8.37244
9.43654
9.81438
8.79086
8.23998
9.13396
8.55814
7.49103
8.16377
9.08924
7.99008
8.27649
7.70413
8.34733
5.83364
5.97386
5.77616
5.85565
5.59828
5.79397
5.95471
5.69641
5.74519
5.90671
5.88927
5.91759
6.13007
6.13819
2.65779
3.0228
2.84971
3.00092
2.92138
2.7919
3.45182
2.78264
2.87025
3.00014
3.8024
3.00633
2.83774
3.9473
3.26196
3.82229
4.32826
2.87691
3.1812
3.55688
5.56701
3.77263
4.7112
3.29181
4.839
2.09743
2.14096
2.30576
2.05571
2.18986
2.20612
2.115
2.15908
2.24054
2.13164
2.04012
1.99713
2.06368
2.00072
2.0767
4.06072
4.13353
3.58706
3.32772
10.0532
11.2091
3.2966
11.782
3.72694
3.96475
3.72794
6.56768
5.76222
10.6516
12.2954
8.30518
9.66767
8.56712
5.73493
5.86737
5.85428
5.72429
5.97174
6.46556
6.14426
5.98208
5.87595
5.69617
5.68993
6.35863
5.80796
6.3946
5.93638
6.45706
5.70099
5.67102
6.49293
5.91226
6.31537
4.58806
4.50104
4.50014
4.48079
4.52284
4.51637
4.58784
4.60797
4.54171
4.55354
4.60973
4.69737
4.80878
4.7243
4.68323
3.62649
3.69403
3.65169
3.63521
3.68314
3.75624
3.7129
3.60883
3.96037
3.77563
6.74497
6.89448
7.15761
6.96577
6.54888
7.07789
7.53175
7.32454
7.31954
6.85589
6.75001
6.99816
6.15427
6.38045
6.85192
5.91983
5.74404
5.76025
5.68303
6.11326
5.76254
5.53931
6.03916
6.06885
7.04039
6.64879
6.05622
5.08399
5.2638
6.45808
6.35523
6.01902
3.02561
3.13807
3.13
3.12981
2.62629
2.92949
2.60007
2.59692
2.57473
3.25854
3.37177
3.14643
2.61671
2.83148
3.38954
44.328
15.0172
20.9542
10.039
17.8933
35.7639
31.7622
26.3128
12.9741
11.5603
10.039
23.6689
15.8509
14.8708
27.3271
4.93767
4.79653
4.92711
4.87631
4.71983
4.84136
5.3634
4.94942
5.71237
5.09384
5.47387
5.03615
4.92052
5.12077
4.99143
4.81245
4.81877
4.87129
5.04279
4.68155
4.63309
4.97496
4.87281
4.96501
4.83206
4.81341
4.85494
4.69466
4.7505
17.492
12.9421
19.0494
38.9109
24.2087
18.8071
17.0201
38.8714
19.0938
3.08153
2.86014
3.15518
3.11949
2.82586
2.84844
3.17403
4.03294
4.08872
4.89167
4.78974
3.6046
3.73469
4.56511
3.25403
4.15226
4.19919
3.29929
59.7778
66.9502
81.1602
38.2142
64.7919
75.0835
105.349
101.138
45.0829
89.1211
60.3073
61.1963
85.1144
88.1013
122.341
124.519
212.202
76.5919
92.2338
122.495
204.111
62.223
65.9204
62.0298
81.1257
63.6792
121.402
46.9797
46.1198
82.0666
62.5249
8.77487
5.72213
7.30784
20.5083
8.52405
25.9489
4.95928
8.47059
14.7669
8.09565
9.50846
9.27962
10.5375
9.53751
10.0914
8.89173
8.39141
9.69452
10.6191
9.74608
10.586
10.4501
9.85065
10.2954
9.9083
14.9583
15.0171
15.2518
13.9348
16.9686
17.1581
14.4028
13.2122
17.156
14.7816
15.3956
11.6042
12.6515
10.7857
13.7031
9.1143
14.9626
13.1
8.56419
24.936
23.4792
32.8732
28.7047
28.0429
26.8658
28.3086
34.7046
37.1005
35.9937
36.8192
41.8263
45.2213
8.35918
7.47102
12.8659
15.4945
7.94217
8.39155
14.7137
11.4528
7.4945
7.28104
11.88
8.51256
8.07821
8.25921
9.67053
14.1155
16.1714
19.6244
15.4247
19.0714
16.3787
10.4464
22.8562
13.1777
22.529
23.2164
22.418
28.2483
24.9052
9.44668
8.58869
20.6704
26.5375
28.2319
20.7146
3.35158
3.31294
3.22947
3.27405
3.30576
3.33854
3.36812
3.31927
3.18878
3.19088
3.31995
3.36646
3.28327
3.36818
3.34316
3.68654
3.55702
3.58065
3.25033
3.44889
3.60398
3.3047
7.35025
6.86794
7.18901
6.73535
7.12773
7.33342
7.81179
7.68359
7.34392
7.03113
7.11954
7.66962
7.10998
7.81175
7.50071
7.40737
7.16596
3.57331
3.76293
4.0592
4.05438
3.89449
3.70162
3.54658
3.58775
4.14285
4.36213
4.86273
4.76795
5.37553
3.2549
3.79157
4.0229
3.94318
4.26706
3.88816
14.9423
12.8698
8.20501
8.50317
7.6866
7.44686
8.41852
10.0857
15.9621
16.2903
15.1293
15.5206
17.5253
11.3964
8.34993
17.4428