/*--------------------------------*- C++ -*----------------------------------*\
  =========                 |
  \\      /  F ield         | OpenFOAM: The Open Source CFD Toolbox
   \\    /   O peration     | Website:  https://openfoam.org
    \\  /    A nd           | Version:  10
     \\/     M anipulation  |
\*---------------------------------------------------------------------------*/
FoamFile
{
    format      ascii;
    class       volScalarField;
    location    "20";
    object      p;
}
// * * * * * * * * * * * * * * * * * * * * * * * * * * * * * * * * * * * * * //

dimensions      [0 2 -2 0 0 0 0];

internalField   nonuniform List<scalar> 
75457
(
-32.865
-29.7019
-25.5128
-23.2625
-18.7261
-19.9405
-28.6747
-28.2749
-17.8815
-12.5276
-16.3703
-17.8613
-17.2216
-15.0059
-3.56997
-4.04259
-3.77702
-3.92946
-4.38466
-3.91804
-3.402
-4.06833
-4.0803
-4.35796
-4.14238
-4.51571
-4.24311
-0.969635
-1.03116
-0.569981
-0.18252
-0.576368
-0.671317
-0.636937
-0.0220453
-1.00125
-0.904035
-1.30668
-1.39532
-0.336242
-0.539288
-0.367164
-0.795147
-9.15173
-8.95918
-8.1462
-8.26131
-8.60761
-4.48966
-4.95717
-5.2985
-4.7952
-4.98125
-5.03605
-5.38484
-5.3847
-5.16046
-5.36487
-4.7669
-5.07084
-4.8367
-4.72455
32.0346
32.2953
32.0355
32.36
32.5858
32.6136
32.2742
32.3123
32.5716
32.363
32.1085
32.3523
32.3422
32.0338
32.2321
-7.97838
-9.10619
-7.37188
-9.43961
-11.1292
-4.97623
-5.28808
-7.61088
-8.23207
-7.8531
-8.02194
-5.19412
-6.77013
-5.19559
-5.21037
-6.65853
-5.4849
-6.4771
-6.63612
-6.66213
-7.00737
-6.60019
-6.44309
-7.61244
-6.8444
32.5105
32.3991
32.6617
32.6779
32.5433
32.3934
32.3134
32.7656
32.7679
32.38
32.3915
23.0684
23.7321
26.2052
25.7774
23.1319
24.7167
24.7494
24.2164
24.5748
26.2713
26.0545
26.5993
27.1405
25.8897
25.326
24.1248
26.5531
25.5457
14.5591
14.5204
13.9356
14.8302
14.4201
15.9591
15.6422
15.5299
15.5181
8.60142
8.14035
8.71184
8.25229
7.6812
8.19498
8.2191
7.26637
-6.52996
-6.57188
-5.96028
-6.16073
-6.5529
-6.20374
-5.90984
-5.41656
-3.87856
-3.91837
-5.46553
-5.19018
-4.72036
-5.42869
-4.30219
17.1673
18.7765
19.02
18.3558
18.778
15.0455
16.4348
18.003
17.0076
17.9744
15.29
13.9671
14.5628
-8.92039
-9.3926
-9.26325
-9.47296
-9.24241
-9.3712
-8.69813
-9.39598
-9.23702
-9.48047
-9.46761
-9.30403
-9.22954
-9.34715
-8.19274
-6.81972
-9.31079
-6.71267
-7.0296
-8.62694
13.3983
14.1905
12.8662
13.5993
11.8199
12.6322
14.9548
14.6845
13.7656
11.0274
11.0088
-7.19554
-7.04234
-7.4569
-7.41546
-7.36461
-7.29283
-7.12869
-7.01395
-6.62141
-7.44516
-7.19476
-6.97389
-7.3312
-6.94358
7.33074
6.38375
6.78488
5.07646
5.6355
6.40209
6.32876
7.56709
7.1391
6.19045
5.58129
4.91685
7.17942
5.61323
-6.65184
-6.72787
-6.46478
-6.42708
-6.72286
-6.65996
-6.73537
-6.69098
-6.88405
-6.42885
-6.67651
-6.15872
-6.77654
-6.86179
-6.60487
-6.56732
-6.71499
-9.19842
-8.97088
-8.92818
-8.89056
-10.1348
-8.63387
-8.53616
-7.94289
-8.80796
-9.27141
-8.30297
-8.97007
-9.04542
-9.00361
-8.8332
-8.98082
-8.79688
-9.34082
-9.56334
-9.2806
-9.09845
-9.48846
-8.99989
-8.77657
-9.12922
-3.94447
-3.6925
-3.99764
-3.42997
-3.45024
-3.31176
-3.10757
-3.06752
-3.0337
-3.54346
-3.86153
-3.73247
-2.95798
-3.40605
-3.32199
-0.578866
-0.401464
-0.284288
-0.522474
-0.2722
-0.302527
-0.658855
-1.00368
0.00773183
-0.0625651
0.20818
-0.0839355
-0.249158
0.109449
0.599159
0.213935
-0.0532297
0.306486
0.0633194
0.00910901
-0.0377379
-0.157674
-4.2508
-4.47538
-3.70098
-3.92018
-4.06719
-4.01314
-4.53823
-4.50559
-4.8768
-4.95762
-4.5313
-6.58961
-6.70754
-6.87958
-6.86175
-6.77633
-6.5366
-6.5517
-6.97361
-7.21762
-6.96709
-7.21506
-6.33362
-6.6246
-6.78027
-6.92302
-6.70283
-6.84817
-13.3641
-12.3163
-12.0227
-13.5418
-16.2074
-15.4779
-15.4518
-14.811
-14.5804
-13.95
-15.4802
-3.03809
-3.20213
-3.66625
-3.49476
-3.34037
-3.57532
-3.33293
-3.98228
-3.59902
-3.61322
-3.1447
-0.162514
0.0269533
-0.223343
-0.259849
-0.0186768
-0.0719368
-0.323056
-0.0928722
-0.433221
-0.434373
-0.564757
-0.219833
-0.346008
-0.807156
-0.834635
-4.62846
-3.88389
-5.17836
-4.48797
-4.46698
-6.79868
-7.1644
-6.77222
-7.07987
-7.16974
-6.78521
-7.5605
50.7407
55.531
44.1803
46.7949
49.6081
51.6884
51.3114
54.151
46.8352
51.2252
49.4239
50.4479
46.6219
51.0648
45.2826
46.8188
48.7186
43.7504
35.5759
35.1248
35.9199
36.6639
37.5594
38.5458
35.7854
36.3988
38.9065
42.3915
39.1242
39.2965
40.9739
26.9717
24.2009
21.6013
23.2282
27.8703
24.5729
23.1202
24.5109
24.162
22.2724
29.5463
29.5113
22.5769
24.121
21.6206
27.8404
29.9384
29.9726
25.9568
25.9429
26.6202
27.9409
-8.38244
-8.73084
-8.95841
-8.94024
-9.04588
-8.46873
-8.53355
-8.66552
-8.80446
-8.4712
-8.89466
-8.47387
-8.62744
-8.56747
-8.71902
-8.6809
-22.0337
-24.7095
-12.5999
-20.3936
-10.9233
-17.5769
-14.9791
-12.3052
-11.112
-15.6908
-28.9385
-24.1711
-15.6189
-21.9322
-10.9484
-13.3663
2.77497
2.61722
2.78308
3.63047
4.00321
4.61368
2.42418
2.09444
3.75975
3.73244
4.62152
4.26983
3.99502
3.91806
3.75628
3.09745
2.35921
3.17292
34.6951
38.6646
37.2128
33.8765
35.1934
37.9332
41.494
40.5911
35.406
41.4125
43.087
41.371
37.4768
34.2574
35.0536
36.133
27.8015
27.1477
27.6492
27.4201
26.568
28.3631
28.937
28.3156
27.6849
28.6187
28.0606
27.2406
28.0979
26.5171
27.2035
28.7346
29.2121
13.0863
12.9411
12.6597
13.0327
13.0222
13.0707
13.1401
13.2303
13.2749
13.119
12.7518
12.8196
13.3401
12.9822
13.083
12.3799
12.3732
-3.91808
-4.9096
-6.53939
-5.51165
-4.52494
-4.59866
-4.21709
-4.22483
-4.95981
-4.49477
-6.19016
-6.26156
-5.23041
-3.47048
-5.88131
-4.94186
-4.88594
-5.60855
-3.45144
-3.54159
-3.40782
-3.39248
-2.82267
-3.12699
-3.25234
-3.30004
-2.82787
-3.03161
-3.17118
-2.77835
-2.71845
-3.03019
-5.47052
-5.0481
-5.90069
-6.79153
-6.79888
-6.17135
-5.85653
-5.81127
-5.71821
-6.67818
-6.69068
-6.51665
-6.09484
-5.58063
-5.89628
-6.59282
-6.80695
-6.93392
22.319
18.0788
18.89
25.6004
21.9191
16.0653
19.01
19.0931
15.5926
23.9405
19.1443
16.2485
-8.03954
-7.75855
-7.58102
-7.44436
-7.81458
-7.60876
-6.34133
-6.70933
-7.71685
-7.66638
-7.57358
-6.74217
-6.75195
-7.37919
-7.48307
-7.30845
-4.20167
-4.80599
-3.78392
-4.31054
-5.44053
-5.29438
-5.29181
-4.1479
-3.8531
-3.96553
-4.05065
-4.76262
-5.30617
-4.37802
-3.86759
-4.65187
5.36712
4.60182
3.93827
7.15627
8.03726
5.62403
6.33488
3.1021
4.66484
5.36139
6.93849
5.86593
6.92402
7.73949
7.46917
4.39883
4.50553
5.79697
3.8886
-2.15121
-1.16645
-2.13968
-3.59571
-2.67287
-1.65143
-3.404
-2.954
-2.17269
-2.56649
-2.11537
-3.48428
-2.31824
-1.94133
-1.24719
-1.02087
-1.04553
-1.66431
-1.36129
-1.32515
-1.19946
-1.22672
-1.63386
-1.07496
-1.52219
-1.11043
-1.86129
-0.912202
-0.892274
-1.0762
-0.957074
-1.23808
-3.13943
-3.76383
-2.82289
-1.4327
-1.90066
-5.5786
-3.06569
-2.73564
-2.7472
-3.84435
-5.27882
-6.8234
-7.11454
-7.09057
-6.9317
-8.02843
-8.45027
-8.08635
-9.0556
-6.36246
-6.16013
-8.38773
-9.60721
-9.20855
-8.31601
-8.14417
-9.4602
-8.23723
-7.93524
-8.42233
-8.56763
-7.29874
-9.06061
-9.11554
-8.83374
-9.01843
-8.77819
-8.97303
-9.02141
-8.78785
-8.61167
-8.75604
-8.97119
-8.74891
-8.82509
-8.74654
-8.85962
-8.7872
-8.79146
-5.8486
-6.35204
-7.88314
-7.85668
-6.66689
-7.22171
-7.80647
-7.57092
-6.80632
-7.70943
-6.84169
-3.44224
-4.22638
-2.49606
-2.414
-2.66522
-2.44971
-2.58373
-1.53854
-2.56234
-2.85331
-2.4244
-2.64561
-2.03882
-2.50185
-2.31579
-2.3045
-2.60495
-2.52892
-1.95631
-2.44972
-2.2241
-2.61818
-2.59108
-2.15685
-2.18534
-2.32495
-1.9908
-2.29778
-2.14175
-1.94201
-2.19077
-1.90194
-2.12577
-2.25119
-1.96821
-5.42469
-5.65545
-5.57304
-5.50114
-5.08646
-4.58476
-5.53653
-4.34849
-5.13126
-3.91298
-4.6716
-5.05185
-5.31041
-4.83948
-4.65217
-6.07341
-5.01496
-4.46502
-4.21556
-4.17286
-5.75176
-5.8937
-6.05934
-6.03191
-5.35083
-5.45202
-6.35995
-6.08495
-5.87882
-5.20184
-5.42
-5.36184
-5.15494
-5.54343
-5.55957
-5.9148
-4.93358
-5.18626
-5.54336
-5.86253
-4.99299
-5.2083
-5.56558
-6.62687
-5.47791
-6.17041
-5.91405
-7.26251
-5.3866
-5.16622
-5.10029
-5.85691
-6.37264
-5.85385
-6.51957
-5.53736
-5.44224
-5.83066
-5.54636
-5.71802
-5.24735
-6.62967
-5.88635
-6.76679
-7.62523
-7.09098
-6.81221
-6.29337
-6.30193
-7.18274
-7.30217
-7.79867
-6.74376
23.3191
23.8243
24.7802
23.807
24.6083
23.3169
24.3518
23.2045
23.7899
24.7813
-8.55776
-8.37515
-8.06227
-8.11505
-8.68145
-8.6532
-8.17903
-8.3216
-8.64396
-8.02575
-8.40989
-8.21269
-8.20016
-8.63521
-8.24892
-8.51668
-8.62651
-8.9557
-8.41541
-9.31153
-9.05453
-8.7735
-9.45916
-8.29122
-9.08572
-8.24618
-8.05019
-9.05119
-9.29318
-8.12959
-9.11727
-9.20702
-8.73504
-8.4005
-9.40469
-8.70982
-8.71446
12.5273
12.9285
13.6223
13.0478
12.7225
13.8422
10.425
12.0069
12.2334
11.8833
11.1749
13.2771
12.7578
13.2861
12.4002
11.966
-13.0946
-14.1639
-13.1736
-12.5782
-12.7246
-10.6196
-11.1639
-11.8509
-12.7427
-13.2956
-9.4548
-10.9967
-12.0241
-10.432
-11.4517
-9.53711
-9.20616
-9.21396
-10.2535
-10.3934
-11.0165
-9.30285
-8.88649
-8.59007
-9.75655
13.3921
12.3887
12.021
12.0885
12.1583
10.6592
10.3272
9.74045
9.78524
10.353
10.4915
9.56977
11.3671
10.451
12.165
12.2679
10.2942
11.4213
11.0372
-8.2263
-8.24126
-8.80874
-8.20528
-9.69463
-8.43526
-7.99682
-8.58526
-8.67608
-8.24358
-8.12321
-8.87377
-9.0275
-9.53133
-8.99969
-8.37746
-8.19932
-9.16073
-8.89692
-5.69546
-7.07285
-6.30711
-5.95057
-5.89671
-6.43127
-5.85171
-5.48049
-6.53487
-6.26903
-6.32201
-5.92832
-6.4382
-6.27138
-6.59259
-6.62074
22.7331
23.3059
22.6507
22.4375
23.7268
24.5932
24.3025
23.4166
23.4667
24.2944
24.4591
23.5475
24.3574
24.9146
25.5686
25.0227
-10.7831
-12.5207
-8.93398
-8.64867
-14.0911
-16.9566
-5.86107
-6.90231
-9.68396
-12.3098
-9.08449
-9.6808
-11.194
-16.7728
-15.0458
-7.40208
-12.5486
-9.42256
-13.0718
-15.4398
59.06
53.1133
48.7614
48.4242
57.5354
58.8389
52.3487
57.1549
51.3353
53.329
50.91
51.3403
48.1669
48.0323
53.7489
21.4213
20.1146
24.7401
26.4361
24.2772
21.205
26.5612
23.1172
25.5664
28.8286
27.7748
29.0041
30.7255
28.5494
-13.678
-14.4159
-13.9641
-14.7153
-12.8215
-13.0844
-11.4588
-10.3259
-12.6573
-12.6031
-10.785
-10.3191
-13.1065
-11.3921
-11.0563
-11.6917
-4.84825
-4.57581
-4.61066
-4.77628
-4.58528
-4.87448
-4.50192
-4.83308
-5.01099
-4.38438
-4.44029
-4.38333
-4.9411
-4.76486
-4.44176
-4.63998
-4.58868
-4.9028
-4.71703
-9.3217
-9.32547
-8.94314
-9.71006
-9.84321
-9.67648
-8.98454
-9.77623
-9.6639
-8.19728
-8.83962
-8.68677
-9.1205
-8.81696
-9.98686
-9.65723
-8.43793
-8.85391
-8.59049
-8.6932
-8.34654
-8.41855
-8.87918
-8.34737
-8.46323
31.4935
30.6745
30.7405
31.176
31.3463
30.9647
30.7507
30.7809
31.4877
31.2893
31.3453
31.0996
31.1691
30.9512
31.2637
31.3275
31.3589
31.1554
30.8079
31.4221
-5.95412
-6.76956
-5.89246
-6.41578
-5.89753
-5.57735
-5.73188
-6.50977
-5.5108
-5.82286
-6.03408
-6.21973
-3.95393
-4.04314
-3.66255
-3.52488
-3.34745
-4.01663
-4.01547
-4.14401
-3.9251
-3.50752
-3.5016
-3.80893
-3.82732
-3.49357
-3.62286
-3.56349
-3.7395
-3.59662
-2.57409
-2.39284
-2.57431
-2.40149
-2.53874
-2.77488
-2.86628
-2.98444
-3.09009
-2.42145
-2.8516
-2.49523
-3.0901
-2.87996
-2.69827
-2.57944
-3.10564
-2.75813
-2.51109
-2.00636
-2.05009
-2.28212
-1.5069
-1.91521
-1.78977
-1.64091
-2.38692
-2.04933
-2.63331
-2.63231
-1.82243
-1.84033
-1.81246
-2.56599
-2.60156
-4.88072
-4.92539
-5.3453
-5.11505
-4.97593
-4.64903
-4.67636
-5.30136
-5.30379
-8.69828
-8.45531
-8.52188
-8.68531
-8.79896
-8.81947
-8.6466
-8.92638
-8.61079
-8.48745
-8.79776
-8.60048
-3.74374
-3.57478
-3.73337
-3.72961
-3.66736
-3.8787
-3.82748
-3.98456
-3.95376
-3.7847
-4.24663
-4.19561
-4.13563
-4.23722
-4.06225
-4.21232
31.9682
32.1846
31.8985
31.6418
31.3012
31.3889
30.9009
30.8427
31.1101
31.6391
-6.59461
-6.34802
-6.61327
-6.37383
-6.70371
-6.58722
-6.85995
-6.82509
-6.97755
-6.99006
-6.73857
-6.54181
-6.77802
-7.16461
-7.07032
-6.8558
-6.77157
-6.73316
-4.68072
-4.95627
-4.59205
-4.6644
-4.60843
-4.5947
-4.81243
-4.62523
-4.76876
-5.17523
-4.93093
-4.99078
-4.75327
-4.93563
-4.54157
-4.62845
-4.81442
-4.61971
9.63555
9.01536
8.42348
9.40999
7.60042
7.02035
10.0524
9.51652
8.18888
9.73569
8.75371
7.82913
8.61307
8.6505
31.7414
31.6386
31.5218
31.3472
31.7937
31.3916
31.2118
31.2457
31.5505
31.3691
31.5357
31.6599
31.2385
31.2039
31.093
31.1355
31.512
31.308
31.4515
31.2216
44.1753
42.821
35.9656
39.0629
28.6048
32.9551
18.4342
34.2005
34.1379
31.5096
37.2551
27.4031
39.0773
44.2407
40.0211
47.5358
29.1225
40.3782
35.8833
-7.4271
-7.85344
-4.39167
-2.95033
-8.82301
-10.8472
-10.3095
-12.4773
-4.02379
-4.08127
-14.3699
-11.028
-5.96815
-10.371
-11.5586
-6.84355
-7.15309
-11.6401
-8.99745
-8.70961
-0.685789
-1.30048
-1.21055
-1.22112
-1.58775
-0.788497
-2.06566
-1.29667
-1.40943
-1.44701
-1.38473
-1.29934
-2.01518
-1.00492
-2.05444
-2.09769
-1.82052
-1.83923
-0.982289
-12.9083
-12.554
-13.0971
-12.7305
-13.4421
-14.2417
-11.9927
-12.3122
-12.842
-10.4395
-11.8918
-12.0622
-12.1271
-12.5201
-12.4493
-12.8352
33.3407
33.2913
33.1582
33.2346
33.5079
33.5254
33.4021
33.4311
33.2411
33.1049
33.6258
33.4018
33.566
33.5605
33.1839
33.1069
33.2753
33.4465
33.5776
33.1718
0.723295
0.571567
1.13834
1.55861
-1.39762
-1.48458
-1.92005
-2.78421
-0.67056
0.733654
1.1131
-1.40158
-1.74959
-2.28156
-3.01645
-2.89891
-0.560726
-2.3949
-2.14351
-1.07699
33.5572
33.4555
33.539
33.582
33.5713
33.5837
33.5057
33.6397
33.7018
33.7057
33.7713
33.4852
33.6554
33.6164
33.7304
33.7121
33.6011
-4.50229
-4.52935
-4.58806
-4.87197
-4.8148
-4.57516
-4.33516
-4.59866
-4.72922
-5.04691
-4.3471
-3.93159
31.6942
31.5081
32.0537
32.0547
31.8149
31.7569
31.4265
31.6399
31.8535
32.0206
32.0595
31.6899
31.5372
31.6535
31.4487
31.6524
31.4514
31.7122
31.7787
31.4394
31.6804
25.3585
24.9224
25.0196
25.4335
25.4643
24.63
25.0114
26.6473
26.8132
26.5983
25.917
25.5536
25.1965
25.1388
25.1573
25.8502
25.732
25.7449
10.2739
10.5324
10.6171
10.2004
10.4617
11.1684
10.8107
10.8526
10.5955
11.7574
11.5889
11.8353
11.6667
10.7338
10.4623
51.5429
46.4713
40.6384
42.0564
48.393
46.5033
57.9756
43.3307
50.1803
45.0754
57.5303
57.3431
53.061
46.3111
-0.107833
0.232749
-0.376465
-0.969037
-0.789231
-1.12236
-0.153063
-0.274837
-0.557709
-0.237403
-1.06193
-0.607034
-0.27563
0.225972
0.0184837
-0.511955
27.1627
25.1068
26.7478
24.9475
24.611
25.0013
25.3224
25.3758
26.2321
26.6346
29.0934
28.5834
27.6
29.9196
30.5055
27.9214
28.9525
32.8654
32.8293
32.4307
32.5273
32.633
32.6805
32.9011
32.9364
32.3995
32.5142
32.8476
32.878
32.8323
32.7149
32.6697
32.8359
32.6449
-9.36875
-7.19308
-7.25791
-10.2487
-6.33383
-11.3902
-16.5742
-6.47987
-9.0545
-9.91614
-9.0444
-8.50384
-9.37478
-6.85685
-15.5543
-15.5471
-12.8454
-13.713
20.1381
19.7963
21.3881
21.0604
20.3722
19.0684
19.4777
21.0131
21.4827
21.0913
20.8504
21.1491
19.4931
19.2443
18.6075
20.3806
19.2767
19.8953
18.8575
20.355
19.6597
19.4278
-4.18973
-4.65731
-4.45464
-4.24371
-3.46248
-3.68117
-2.42668
-2.71593
-3.57843
-4.5091
-4.12328
-3.78379
-2.76513
-2.75399
-2.78557
-2.78665
-3.52979
-4.0531
-3.49764
-3.51921
-3.91941
-3.79213
-3.6193
-3.87654
-4.14384
-3.90348
-4.04722
-3.34603
-3.39093
-3.31998
-3.44142
-3.4335
-4.06444
-3.97659
-3.98192
-3.72844
-3.36047
-3.81607
-4.44808
-4.2897
-4.34805
-4.51112
-4.73265
-4.76537
-4.28148
-4.63042
-4.29953
-4.43836
-4.19285
-4.63971
-3.87792
-4.19521
-3.99701
-4.69695
-4.34623
-3.99882
-4.70031
-6.70563
-7.238
-7.12713
-8.56471
-5.59941
-4.44869
-7.5336
-7.35551
-2.788
-3.41416
-1.17041
-4.30351
-2.0102
-4.58163
-4.10263
-5.89796
-5.5081
-4.06836
-3.58555
-0.387549
-2.55977
-1.00023
8.52899
6.90042
6.23735
6.72655
7.33831
8.91956
8.80347
7.73672
7.01728
6.17065
6.5792
6.73757
6.36507
7.40612
7.26855
8.34042
7.12677
6.39006
7.04964
-6.91023
-6.47827
-6.69477
-6.7286
-6.84869
-6.90404
-7.0773
-7.37745
-6.90586
-7.46149
-6.97127
-6.82126
-6.85296
-6.7865
-6.84025
-6.81663
-6.85631
-2.98913
-3.19578
-4.66795
-4.14841
-3.94069
-4.20946
-4.44073
-4.11366
-3.49747
-4.33256
-3.69797
-4.3501
-4.00951
-4.06706
-3.33577
-4.02299
-4.20591
-4.44849
-3.12811
-3.80534
-3.00298
-4.04087
-3.69393
-3.92346
-4.01975
-2.66273
-3.81462
-3.72763
-3.45764
-3.18473
-4.2315
-0.173872
-0.410192
-0.174362
-0.020757
-0.110011
-0.204006
-0.306675
-0.295015
0.0305328
-0.159051
-0.39222
-0.334153
-0.506908
-0.522241
-0.133171
-0.263573
-0.600498
-0.489704
-0.483518
-0.501365
-0.212252
-0.0396498
-0.7582
-0.0732866
-0.288489
-0.286855
-0.55964
-0.700407
-0.33127
-0.369029
-0.22715
0.066812
0.0182828
-0.245783
-0.580879
-0.235413
-0.180285
-0.570493
-0.0492855
-0.240483
-10.9968
-12.067
-15.0851
-15.707
-15.5971
-16.2863
-11.9111
-13.0766
-13.692
-9.87593
-11.8357
-12.5871
-14.7194
-13.9759
-13.8437
-12.4582
-12.2644
1.34788
1.356
0.95823
2.25188
1.60106
0.724415
0.455699
2.3191
2.02687
1.06481
-7.9484
-7.91838
-8.19832
-8.41828
-7.84197
-7.82375
-8.06954
-8.40521
-8.48562
-8.23845
-8.10139
-7.95323
-7.82636
-7.79163
-7.57672
-7.99394
-7.90308
-8.02972
-6.80445
-6.78734
-6.90317
-6.56577
-7.00701
-6.64328
-6.75107
-6.57287
-6.27763
-6.34185
-7.01979
-7.13425
-6.7968
-0.502153
-0.245969
-0.691482
-0.347374
-0.855783
-1.11595
-0.768743
-0.172634
-0.112386
-0.57758
-0.902432
-0.789462
-0.12728
-0.0828222
-7.52791
-7.49785
-7.82589
-7.65857
-7.55785
-7.51558
-7.72083
-7.71181
-7.72629
-7.68237
-7.73135
-7.91153
-7.71166
-7.52525
-8.13555
-18.6757
-17.9633
-17.6649
-17.6217
-16.9399
-16.5298
-19.5496
-18.8233
-18.6805
-19.0605
-19.726
-19.5745
-17.3963
-17.3853
-17.8952
-17.861
-18.1469
-19.0539
32.3866
32.3827
32.6412
31.9831
32.0985
32.0601
32.1688
31.9881
32.3116
32.2883
-7.04102
-7.09963
-7.08976
-7.32553
-6.99478
-7.30241
-6.96467
-7.05268
-6.85803
-6.94081
-6.97474
-7.25612
-7.3265
-7.09304
-7.34484
-6.96362
-7.08582
-7.12994
-6.93343
-7.10394
-7.17039
-7.11348
-3.80602
-3.67371
-3.83848
-3.6751
-3.417
-3.44732
-3.29343
-3.39692
-3.10439
-3.25509
-2.80458
-2.87622
-2.92746
-3.00141
-2.78014
-2.70885
-2.68594
-2.97878
34.0611
35.0276
36.3012
34.9964
33.5566
36.0456
34.2311
35.1767
31.4831
33.3348
34.9112
32.0918
32.4263
31.1852
29.902
33.0057
30.805
29.6752
30.7518
34.257
32.102
31.1373
28.5528
33.8674
34.5979
36.0148
35.4596
39.9257
39.1382
36.3318
38.9531
32.1162
31.4027
39.7658
40.8005
37.3552
40.1016
33.4436
33.5575
33.6167
33.4296
33.5319
33.4278
33.6007
33.5575
33.408
33.5308
33.3564
33.3948
33.6084
33.5504
33.5515
33.6042
32.9921
28.8612
28.445
30.8185
31.9146
33.7443
31.648
31.7264
28.0634
27.3914
32.1356
29.9291
31.5218
28.7829
30.8994
28.6074
28.3537
29.7059
30.2896
29.1042
29.7872
30.944
30.7936
30.0427
29.3156
30.9508
31.3705
30.8827
25.4721
25.0007
27.2614
28.6106
16.718
15.6948
25.8277
25.647
16.456
18.6697
21.2464
21.1149
22.8735
20.3566
17.8612
15.7734
31.2474
30.4027
30.7631
31.2765
30.4781
31.8015
31.3983
30.6005
30.6207
33.4731
33.0401
32.7243
32.1723
31.0469
32.1803
31.6168
32.6824
32.0679
31.4082
32.9619
10.9628
12.8038
7.48334
4.52743
5.69348
8.58847
15.961
7.59296
11.4623
11.431
5.12326
10.1429
10.9022
7.77315
10.7375
17.404
17.4811
15.9131
13.9582
12.29
21.2652
18.3874
18.4644
15.6488
19.6134
19.6782
19.7312
17.0708
15.6286
16.68
16.8027
17.5883
17.9062
32.7888
32.831
32.6515
32.5458
33.197
33.1669
32.7568
32.5991
33.3437
33.3559
32.8087
33.0888
33.3381
33.3061
33.2064
-9.03351
-8.78877
-9.27708
-9.22436
-9.72291
-8.68418
-8.56017
-10.4059
-10.0225
34.9961
34.1222
33.1093
33.0485
33.7962
33.1603
35.4007
32.8626
36.6224
35.174
32.9615
34.8202
35.4638
35.8352
36.294
32.0714
32.3789
34.1623
36.3396
35.0089
32.5693
33.4479
7.38302
8.08763
7.37614
5.52096
6.52676
7.39836
4.2401
5.47625
5.78965
3.65765
4.86963
2.95879
3.71394
2.6006
2.16036
3.02526
4.25107
5.80112
1.84585
4.70143
31.5786
29.8743
34.6384
30.0532
31.9629
38.3333
35.5773
31.7753
35.5002
31.1686
33.6414
39.5277
37.3563
38.0657
41.4688
34.7871
34.001
32.2853
36.7666
30.7596
33.9512
31.6346
35.6001
39.9882
40.8828
39.0304
-7.56833
-8.52819
-8.1975
-7.60372
-7.85709
-8.58021
-7.96626
-7.62958
-9.09436
-7.65068
-7.95413
-8.38931
-7.82334
-7.34655
-7.25338
-7.77088
-7.62811
-8.35149
-7.74221
-7.17138
-7.18844
-7.2704
-7.26697
-7.85513
-7.34772
-7.74236
-4.31132
-4.06316
-4.7511
-5.22775
-4.21857
-4.45387
-4.13064
-2.95586
-4.86058
-2.27987
-4.83213
-3.70856
-3.2145
-3.92895
-4.84908
-4.79223
-4.18309
-4.00177
13.3008
12.788
9.30837
11.377
9.97865
7.9903
4.71235
9.51115
9.77388
7.31557
2.355
6.18085
7.58036
28.8998
29.6849
30.0277
28.6544
30.3146
30.0945
30.4767
29.6065
29.7421
28.7184
28.9164
30.8032
30.1617
-10.4967
-10.3111
-11.2284
-10.6667
-10.6701
-11.2218
-12.5014
-11.9768
-13.4918
-11.4008
-11.6071
-11.1946
-12.6095
-9.289
-7.98513
-7.85491
-8.30914
-8.5486
-8.97144
-8.91385
-9.20123
-8.00604
-8.07758
-8.58927
-8.07412
-7.71465
-8.2611
-8.18204
-7.46385
-7.2109
-7.48203
-7.52646
-7.64875
-7.34344
-7.27739
-7.276
-7.14984
-7.47538
-7.49474
-7.67568
-7.63859
-7.48331
-7.28847
-7.39993
-7.53565
-7.19366
-7.24045
-7.11235
-7.14619
-7.04066
-7.0551
-7.41165
-7.14476
-7.05629
-7.21432
-7.19136
-7.1765
-7.72018
-3.77132
-5.13335
-5.2141
-3.94845
-4.81099
-5.16322
-5.70134
-3.63962
-3.75212
-4.3683
-4.30239
26.3913
28.0112
27.0912
28.2042
27.4532
28.3744
27.4752
26.7111
27.798
26.9141
28.3407
26.0843
27.6309
36.4738
39.3225
41.611
49.9455
47.7165
36.2129
53.2787
52.4899
39.6017
45.3084
37.8152
40.0505
48.1622
52.0738
54.8996
43.3401
45.1919
41.7831
51.5496
49.5132
47.7338
44.7237
37.2148
37.2039
37.1949
35.8942
35.598
34.3337
34.7307
35.2896
34.5155
33.5465
33.6299
23.3163
22.6506
22.3232
21.9257
24.4537
23.9399
22.1766
23.6313
22.7868
21.8474
21.0618
21.3588
23.1246
24.5276
24.7137
21.8576
21.3062
23.6768
20.7345
34.9195
35.2107
35.0861
35.0788
35.8243
35.6581
35.4394
35.2595
35.2576
35.6608
36.4236
36.1186
36.556
-5.17587
-1.10715
1.25851
-2.59801
-0.55304
3.01198
2.80895
3.58769
4.30258
-0.256482
2.07323
-5.27978
-8.51531
-0.228306
3.10425
-3.25704
-1.04915
-8.99823
-4.25226
-9.79068
-2.87308
-7.26077
-7.17809
-7.18691
-7.326
-6.96548
-7.0684
-7.24179
-7.6067
-7.08356
-6.90316
-7.49578
-7.27382
-7.05538
-7.06555
-7.04756
-7.12777
-6.83102
-7.03608
-9.23209
-10.6981
-8.24362
-8.33686
-7.9479
-9.75386
-8.76245
-8.61511
-8.22456
-8.70292
-10.0061
-12.0375
-9.80077
-9.63171
-8.04971
-6.25653
-7.76533
-7.35467
-6.71813
-8.21897
-9.92516
-7.51977
-5.95556
-6.82228
-6.2824
-8.11099
-6.82527
-2.45877
-2.84996
-3.12295
-2.99111
-3.28891
-11.5587
-13.7266
-12.2773
-13.6404
-18.2157
-11.4837
-15.3151
-18.8187
-18.1912
-22.5855
-24.1781
-20.6625
-20.0298
-20.895
-15.8734
-1.58918
-1.75062
-1.7239
-2.77791
-2.37669
-2.01839
-2.18313
-2.14649
-2.33211
-1.49655
-0.910618
-2.50131
-2.37189
-1.64416
-0.537446
-1.40543
-2.34283
-1.83625
19.7312
17.7904
13.9185
20.8346
8.3059
-1.96205
20.055
10.5042
19.0182
13.0783
14.5579
-14.7931
-6.63965
-24.9612
8.70385
8.19697
5.06958
-4.19564
2.43345
7.17564
-16.9139
-16.4952
-16.5657
-15.043
-15.4345
-14.2909
-14.1615
-13.9752
-15.3759
-15.6037
-13.5829
-14.2559
-14.7656
-13.8501
-9.85618
-8.12341
-8.91267
-10.6845
-6.24293
-6.9599
-8.43437
-10.8009
-8.24317
-7.84893
-10.687
-9.44383
-5.49042
-6.19061
-5.43881
-6.03778
-6.09954
-6.38695
-4.19971
-5.2652
-4.4067
-7.06255
-10.5374
-5.70698
-11.6733
-9.90261
-11.7395
-11.0897
-1.16716
-1.82555
-1.50168
-3.58068
-5.97955
-6.56741
-8.45353
-8.53983
-2.91539
-6.04494
-3.39864
-3.57818
0.625948
-0.999096
-1.3198
-1.09688
2.46304
2.18208
1.21626
4.21312
4.25781
0.697577
-1.59243
1.19635
2.30965
3.9436
4.52038
-0.0142133
2.35615
2.07535
0.606168
1.741
14.5485
15.1766
12.2482
12.6827
15.2269
13.393
12.9021
13.5023
13.997
13.506
12.4508
13.0659
13.1955
12.2498
15.0795
-9.24732
-6.01705
-6.75491
-8.21887
-9.52769
-8.52035
-5.93344
-8.83798
-4.2659
-3.90192
-4.65055
-4.59031
-4.65553
-5.04316
-5.01056
-4.2625
-4.95663
-5.10032
-4.49665
-5.27029
-6.30655
-5.89407
-4.68217
-4.7683
-5.97541
-5.8195
-5.97536
-5.06064
-5.71533
-4.59633
-5.10125
-4.19788
-5.52564
-5.12001
-5.66718
-4.91517
-4.6404
-5.26322
-7.42443
-7.16846
-7.70036
-7.45187
-7.25065
-7.67566
-8.2918
-9.58073
-8.93127
-8.29502
-7.92218
-8.6065
-8.54995
-9.37594
-8.89392
-8.07778
-8.51496
-8.83297
-1.24859
-1.0901
-1.07781
-1.24089
-1.36846
-1.41425
-1.04543
-1.0997
-1.39549
-1.44459
-1.2076
-1.5463
-1.89905
-1.91759
-1.10613
-1.54613
-1.37825
-1.24529
-1.90688
-1.77611
-1.38016
-1.17943
35.6579
35.3016
35.7791
35.4103
34.8397
35.5092
36.0241
34.9075
35.0357
34.9333
34.3603
34.0576
34.2799
35.2786
34.7833
34.5349
-14.421
-13.5889
-13.4244
-14.1368
-14.7546
-14.1043
-12.2484
-12.3767
-11.4299
-13.8312
-12.3836
-12.1452
-13.5271
-11.7346
-14.5313
-13.2542
-14.019
-15.3457
-4.12216
-4.04421
-3.52583
-3.46587
-3.8307
-3.85437
-4.01488
-3.43448
-3.54585
-3.27436
-4.1902
-4.23813
-3.85204
-4.31171
-3.70681
-4.19238
11.6112
12.3356
14.0426
12.4635
11.1336
13.3623
11.8047
13.8114
14.3197
12.5331
13.04
12.6603
12.4268
14.0349
11.9077
10.6083
11.94
10.3716
10.7853
11.8057
7.40016
5.64487
3.05273
2.77511
1.4065
1.24606
5.20426
0.148189
11.0537
9.74933
-1.45644
4.54118
9.38955
7.95579
1.57533
5.19981
-10.078
-9.96043
-9.50527
-9.18497
-9.11994
-9.21937
-9.11454
-9.16449
-8.86707
-8.01167
-7.9812
-8.32258
-3.01039
-2.91452
-3.02234
-2.66242
-2.80071
-3.01833
-3.11782
-3.16247
-2.53634
-2.66579
-2.84243
-2.70054
-3.16269
-2.77011
-2.54146
-2.68915
-2.96847
-7.36958
-7.56071
-7.18991
-7.20539
-7.24961
-7.6351
-7.54583
-7.1567
-7.49985
-7.22273
-7.20472
-7.38232
-7.69994
-7.94204
-7.25355
-7.57292
-7.98604
-7.15751
-2.67711
-4.53029
-3.76686
-3.03131
-4.56791
-4.31868
-2.45293
-3.06584
-4.60082
-1.77135
-1.56514
-2.60342
-1.95165
-2.71528
-1.78642
-2.04717
-2.41738
-2.77085
-3.82107
-3.27853
-5.32389
-5.21103
-2.42657
-2.58799
-4.27131
-3.98265
-2.89523
-3.34171
-4.84319
-4.72481
-3.44036
-3.19077
16.5257
16.1879
10.6747
13.5451
15.4375
16.2544
16.1006
14.7808
11.8688
14.7715
11.6123
14.1601
14.029
12.5627
36.0019
35.6279
34.5194
34.726
34.7436
35.091
35.7527
35.455
34.4294
34.6481
34.5158
35.2164
35.0325
35.5821
-1.19329
-1.05531
-1.54168
-1.49147
-1.45572
-1.6173
-1.33318
-1.45858
-1.34215
-1.55371
-1.63171
-1.46102
-1.17983
-1.3509
-1.63525
7.07788
7.53128
10.2161
10.2486
6.98701
8.17542
8.24311
8.75396
9.97037
10.2386
6.15331
6.42518
6.94096
7.56105
8.82325
7.3754
8.20169
-6.98829
-6.61561
-6.70518
-6.99845
-8.22541
-7.43275
-6.44995
-7.04022
-7.46232
-8.26477
-6.96052
-6.97354
-7.22
-7.12006
-6.334
-5.96567
-6.90566
-8.12845
-7.35318
-6.63805
-7.53662
-6.13807
-6.98884
-6.0982
-6.09847
-6.61803
-7.84902
-8.53394
-6.92363
-6.62955
-6.63501
-7.81279
-7.31452
-7.36307
-7.29314
-7.82733
-7.0596
-6.00948
-6.05928
-5.98289
-6.08026
-5.81112
-5.85251
-5.7175
-5.8391
-5.68957
-5.41838
-5.5922
-5.62459
-5.56824
-5.88515
-5.48888
-5.55152
-7.81122
-7.82691
-7.93946
-7.97728
-7.35593
-7.99853
-7.20751
-7.97264
-7.84909
-7.66965
-7.41354
-7.30217
-6.56985
-6.96455
-6.73352
-7.37042
-7.51965
-7.47592
15.2479
15.2779
14.2576
13.9098
11.1235
9.32788
16.264
15.4496
8.50884
16.434
13.9504
12.5542
9.9845
12.6927
14.8437
15.4887
14.1738
10.3044
11.557
11.1495
9.08334
9.07442
10.3515
11.0358
9.76877
12.6236
12.4794
12.6244
11.0008
12.376
11.5303
10.0765
29.6162
28.9896
28.2922
29.3309
30.5656
29.2404
30.7749
30.7987
29.3349
28.5863
27.676
29.231
28.0898
31.9218
30.9085
-4.43516
-4.1674
-3.91004
-3.34373
-4.67416
-4.07381
-3.53864
-3.36971
-4.00382
-3.61683
-4.07149
-3.07638
-3.35019
-2.71971
-2.97411
-3.50905
-6.23423
-6.12341
-6.84041
-6.06657
-5.97778
-5.9718
-4.27962
-5.96072
-6.00827
-6.53769
-4.22151
-4.90978
-5.66441
-24.3258
-17.8436
-16.1454
-10.3279
-24.2999
-29.7275
-5.57352
-13.0594
-9.67123
-15.2473
-16.7265
-21.4476
-18.8378
29.4164
28.2871
32.3098
29.6089
30.9808
32.5354
30.4834
27.7611
25.607
26.8522
29.5545
31.0916
30.0347
21.6026
23.5113
29.9224
29.4336
23.2493
21.7203
24.3241
10.4749
10.3418
10.1336
9.24167
10.2197
9.60494
9.29145
9.95924
10.26
10.2081
9.77151
10.556
10.343
9.91599
-2.13994
-1.79784
-1.9204
-2.17124
-1.85628
-2.20777
-2.31216
-2.42524
-2.195
-2.31198
-2.41548
-2.6265
-2.39183
-1.87958
-1.93448
-1.76096
-1.6824
-2.17006
-7.85517
-7.7391
-7.27521
-7.59011
-8.58452
-8.65462
-7.78754
-8.17673
-7.88363
-8.20068
-6.88587
-7.47802
-8.56536
-6.90381
-7.63961
-7.4051
-7.96035
-7.85275
-7.8975
-7.62014
-3.04256
-2.6264
-2.38076
-2.67198
-2.69232
-7.19383
-6.87101
-8.49476
-8.14135
-7.29953
-7.97913
-7.10089
-7.34223
-7.37749
-7.8488
-6.8551
-7.77519
-7.19457
-6.91867
-8.58504
-8.30208
-8.63188
-8.18574
-8.52949
-7.67457
-9.17004
-8.96928
-8.44129
-9.02597
-8.70079
13.9743
14.3268
14.3513
14.0339
13.4606
13.3242
13.7654
14.2222
14.7789
14.7711
14.1837
32.8749
33.5253
31.9419
31.8387
32.6873
33.9583
34.5528
32.9041
32.7346
35.1896
34.0685
36.8158
32.9056
32.2163
34.05
15.1672
14.3874
11.4402
12.8108
12.2636
13.6445
11.9576
10.5113
10.7111
12.0109
13.686
12.7535
14.1265
10.8867
11.3625
12.8073
9.23699
9.26068
11.2954
8.80975
7.52154
25.7635
26.7708
26.206
25.1899
25.6769
25.0273
22.4362
21.4619
19.8263
20.3915
20.7292
20.5747
23.5235
23.5432
21.5334
22.1558
24.4393
40.9168
43.0726
43.4972
40.9543
40.0827
41.8001
41.0284
41.7313
43.0632
40.3243
43.997
40.8021
39.8297
46.4937
45.0864
44.9697
41.6394
44.6803
45.648
42.0821
1.0997
1.83626
5.54537
4.4044
10.925
1.64321
3.14166
8.36623
6.42365
8.89727
14.1614
13.5607
8.30046
11.7888
-8.96786
-8.89971
-8.81452
-8.67942
-8.90522
-8.97757
-8.72838
-8.69347
-8.78469
-8.54332
-8.62141
-8.53912
-8.56293
-8.46366
-6.80872
-6.49306
-6.42173
-6.7579
-6.31693
-6.76078
-6.36323
-6.85357
-6.58356
-6.71363
-6.58579
-0.122118
-0.0964214
-0.288692
-0.343244
-0.732558
-0.116874
0.0523947
-0.359345
-0.134554
-0.446574
0.0845037
0.10945
-0.0986633
0.113318
-0.597414
-5.38764
-5.46719
-5.50036
-5.63109
-5.47229
-5.67478
-5.83275
-5.55994
-5.71946
-6.21558
-6.25899
-6.08404
-6.09203
-5.70747
-5.50907
-5.57602
-5.69641
-5.58195
-7.32177
-10.4045
-7.0163
-8.4465
-7.09609
-10.072
-8.51488
-7.51845
-6.27185
-7.25479
-9.18913
-6.00849
-7.9686
-8.68052
-7.94395
-9.03666
-7.43797
-8.073
-5.09793
-8.06773
-7.28441
41.7716
45.432
44.0659
45.8916
41.6868
45.8603
46.9742
44.3013
48.1619
49.9169
46.3893
38.3526
39.1186
43.686
38.9686
4.73811
5.10291
3.11586
3.52942
5.42476
3.6195
5.92119
4.24957
4.16648
3.63363
23.4585
23.4137
24.0742
24.0828
22.6381
23.8923
24.4751
24.3494
24.3886
24.3122
21.8094
22.3473
22.0919
22.6316
22.2897
-14.3238
-13.8243
-16.4124
-15.8481
-14.5634
-14.9143
-14.9858
-17.6314
-16.5396
-17.7405
-17.9836