/*--------------------------------*- C++ -*----------------------------------*\
  =========                 |
  \\      /  F ield         | OpenFOAM: The Open Source CFD Toolbox
   \\    /   O peration     | Website:  https://openfoam.org
    \\  /    A nd           | Version:  10
     \\/     M anipulation  |
\*---------------------------------------------------------------------------*/
FoamFile
{
    format      ascii;
    class       surfaceScalarField;
    location    "20";
    object      phi;
}
// * * * * * * * * * * * * * * * * * * * * * * * * * * * * * * * * * * * * * //

dimensions      [0 3 -1 0 0 0 0];

internalField   nonuniform List<scalar> 
146459
(
-2.04778
2.6513
-1.50889
0.905366
0.776999
-1.31288
-1.5119
-3.17698
4.94008
0.888189
-1.17888
-1.2211
-1.98003
-0.987589
1.64368
1.32394
-0.227758
-1.75227
1.73664
-2.32537
-0.724153
6.36624
3.20229
-8.1745
-1.39404
-1.91854
3.34978
4.935
0.104879
-2.2758
0.879082
0.409128
-2.53539
-1.49269
2.75174
1.47713
-25.7461
47.7306
-24.7457
2.76112
-27.974
20.3055
-18.0776
28.2962
10.6596
-16.926
-22.0298
55.1905
10.382
-37.2763
-13.9438
-23.38
9.34976
21.3205
-6.7747
-3.88612
52.7307
23.7802
-19.6891
-1.02942
-28.4084
-35.2562
40.2846
-10.4294
12.5302
-30.5092
-38.6348
8.51634
41.5722
-9.55151
-19.4905
10.0691
6.22879
25.2743
9.4613
23.7815
-3.75349
-29.4893
0.403045
23.84
-14.7818
16.9283
6.92893
-0.0756922
-10.0302
9.757
17.2015
20.0824
-18.1789
5.02544
-11.6192
22.6959
9.00566
29.3617
-17.6691
32.3285
-44.021
15.3174
4.01405
-9.12177
23.7695
-14.2447
-30.5444
17.2779
-11.6168
-3.77192
9.4306
-25.9169
23.9623
17.272
-9.97833
16.3899
34.9301
3.93041
-14.8982
10.0449
9.95263
-3.54853
-4.16821
0.845541
6.8712
-6.15917
-3.71198
6.32262
7.18933
-6.60937
-4.74817
0.485869
4.34457
2.35889
7.54347
3.56582
-10.6234
-18.3636
-17.7688
21.1533
14.9791
-18.0721
21.9669
-3.7182
-0.176538
-4.98783
-0.452394
-12.6319
-15.8579
-1.18353
-1.3221
-11.7231
-5.63697
10.7202
6.63985
-4.06405
17.3117
8.71926
-16.0848
-2.93045
15.297
-15.0418
-6.0308
-24.1283
4.67162
15.3926
-17.3025
-7.2782
2.65955
-17.4364
-2.99196
-9.06358
10.1101
-11.0754
-21.7545
-11.5398
-8.35927
-2.29295
18.0777
-7.4255
-8.1485
-0.745945
0.535171
-11.69
21.5959
-12.1988
-8.44228
0.699202
-0.405423
9.33762
-1.08355
1.16819
-9.42226
-5.41203
6.30736
3.13824
8.97572
-8.92376
-3.19021
-5.61042
8.74866
11.0224
0.414425
-12.5204
-0.797634
1.51101
8.26235
-0.35378
-11.3021
12.8241
1.27977
-9.7891
-13.8688
1.38119
-12.9429
0.0591692
-1.395
0.485197
0.850633
-0.768939
-0.0591007
0.887209
-0.34864
-0.556502
0.136204
-0.0524872
-0.16974
-1.17277
0.570336
-0.681924
0.0164418
-0.933511
1.40227
-0.654747
0.322549
1.48764
0.330787
-0.559025
-1.2594
0.130022
0.686712
0.670909
-0.550303
0.123823
0.158564
-0.37808
-1.87837
-0.172502
1.11736
-0.78839
-1.25972
0.359477
-0.283545
-0.248434
-0.136706
0.164137
-1.41576
0.463234
-0.678433
-4.19964
10.3643
6.83849
-13.0031
-1.96218
-17.3202
5.61031
13.6721
-16.4166
10.2548
-9.88906
-23.8478
-6.45359
16.1347
-9.68116
-12.3271
13.8415
4.09589
7.91329
-24.2206
6.41821
-10.8674
9.01587
-6.4173
2.4632
-5.06177
-0.616185
5.58669
4.04536
0.137591
-1.2604
-5.29449
7.95842
-1.61447
-6.20636
12.1909
4.96786
-9.20032
6.44632
5.12837
-6.90963
9.37283
0.327623
6.91396
-8.50198
-9.55533
8.26849
13.2407
-8.27281
0.00432763
-6.54192
0.867839
-6.30179
11.9759
-8.995
-4.62293
7.07601
6.04824
-7.00414
9.86441
-8.9085
0.150408
5.89783
-7.50585
-7.4065
15.7802
-0.302225
-9.27647
0.5837
-6.60401
-4.1823
-10.6582
7.33463
-10.7629
1.95765
-0.0509997
-8.67533
-2.03656
-7.637
-1.69048
-4.55012
6.45361
-9.54048
5.49637
-17.0506
10.7699
-0.341419
-0.564048
9.2612
10.0006
-13.1796
-0.998984
4.42457
12.9156
-9.91391
-7.42629
10.6893
0.440148
-6.7049
4.44056
19.1644
6.52538
-12.0523
10.6698
-5.1429
-9.95654
20.9225
6.22386
4.92483
-23.1629
12.0143
4.72268
-10.5511
5.23386
-10.2229
16.8888
7.04542
-15.5141
-8.42007
-5.66751
16.3051
6.25116
12.2274
-3.94205
-13.9529
9.46296
-0.400149
-2.01739
6.80245
18.9657
-2.23646
10.8915
-9.05517
11.0964
3.21355
-2.08246
24.0216
-6.12278
-6.548
-7.80673
-2.09068
16.4454
-12.9274
-9.04104
15.4204
0.0283779
-7.83511
-12.9215
0.022556
-1.15926
-24.5939
16.7121
6.5797
-19.6797
11.9408
-8.07919
12.5682
-20.5239
-10.164
22.6087
12.6003
-27.9268
-5.19742
2.43639
-3.14091
-18.7218
-2.73116
-12.4312
-3.63121
-5.39871
-24.625
-13.7765
-10.9123
-6.91765
11.7179
-0.944645
-3.29944
-7.47377
-5.34273
0.125813
5.02018
0.196735
5.55635
-13.4217
2.52262
-9.41911
8.56139
0.983539
9.002
-12.8648
-1.48265
4.03163
9.16887
-13.501
4.69334
7.32505
-0.95254
-2.4274
-10.1211
7.44184
-3.3663
11.1979
-3.14849
7.02196
12.7374
1.29247
10.181
13.0078
0.0949652
-6.24188
8.28736
-2.14045
-8.47831
11.3293
-2.75606
1.32967
-16.0499
-15.2808
-1.37619
13.7518
2.90521
11.9482
-25.8993
10.572
16.9068
7.78333
-16.4028
-7.5858
8.55651
15.9361
0.197526
1.19968
9.23479
0.894871
11.6873
3.26416
-0.0276592
17.819
-10.7695
22.4292
-5.8222
5.23414
10.3808
-9.79274
-8.01364
4.55027
-2.35884
-16.913
5.51464
3.38476
-6.12671
-9.34186
20.7027
5.86467
-7.44111
-4.04788
-5.29398
-3.85632
1.65611
-16.7733
18.9735
20.5821
-21.297
-3.14137
3.98084
13.1946
3.40661
16.3709
-1.73284
-12.9819
5.33849
18.8594
-7.82698
5.81508
11.8348
-13.6691
15.3972
3.94153
-19.2106
-0.128214
-2.10084
17.4981
-13.5922
15.8009
-1.38775
20.7042
-13.978
19.266
-14.8387
0.823063
6.12696
9.71034
-16.6604
4.46914
6.81558
-10.4617
8.28267
7.17413
-10.9877
-2.93078
17.8289
-6.61544
11.5837
-8.3875
0.0511477
6.76444
9.76149
7.6301
-12.4335
9.43574
-4.63232
-2.55151
15.651
-5.46941
0.161363
7.01277
0.993912
-1.84375
10.7554
6.9258
15.1297
11.8812
10.0821
-4.90869
-17.0547
-4.53495
8.80595
7.61023
5.54716
-12.2154
0.671043
18.0601
-6.51572
-6.79415
3.38471
-6.31976
11.8669
-16.5804
-4.84482
12.3424
9.08285
11.1646
-6.7483
-20.9967
15.6878
-9.06761
-15.3768
8.75664
1.6276
7.8538
6.20636
-6.02626
18.5642
-20.7246
7.94376
7.17167
2.50376
-17.1688
7.49335
6.52709
11.5699
-10.9253
-5.88005
-17.5768
6.06408
17.3928
-21.1271
3.66517
11.5819
-4.93273
-6.12006
-10.0743
-14.9094
-7.60013
5.64068
7.07009
-10.207
12.1678
11.6384
-0.0933867
0.0248687
1.3597
-5.09758
-6.71296
10.4508
-8.93918
16.363
-11.713
10.2806
12.5811
-11.6311
-3.9834
6.68262
-10.6964
-1.47141
2.33955
-5.00662
-11.3571
9.68809
6.67558
-10.078
5.07134
9.23659
-2.22897
8.76677
-15.7744
-0.841372
7.604
-16.2782
6.44521
7.0886
2.07547
-1.56008
-0.68965
-7.36258
0.266206
7.78603
-9.07976
-1.30743
9.69754
14.2299
0.396565
-3.63076
-10.9957
14.9806
-9.83044
-2.19372
-1.11535
-0.266257
-6.09404
0.464661
5.89564
-8.99409
8.72783
-3.99773
-6.79876
7.52794
3.26855
8.32969
-12.3274
-8.84623
-0.147861
12.3684
1.04894
0.497399
-13.9147
-0.10687
12.4753
0.894002
-8.69129
8.72494
0.824221
-9.05176
9.20236
-0.584298
1.13528
-7.86458
0.635268
3.53888
-6.14636
-10.7861
7.92262
-12.9918
15.8554
-10.6088
-0.177299
-4.77481
17.6805
-4.98303
7.32454
-7.64034
-9.37677
9.69257
-3.81674
11.1413
6.13194
11.1347
-10.1907
-7.07598
-4.47688
8.29362
-5.38342
-10.5505
-3.16688
1.30977
7.13871
13.8352
-17.2709
-3.70298
-11.7024
14.0663
3.58136
-19.1555
-13.6063
-1.26301
-19.4441
9.41916
-0.959526
4.8766
-5.56748
1.65041
-8.36798
7.40845
-7.09863
0.344367
-4.64408
-5.28011
-1.81852
-7.50476
10.0758
2.05719
-20.501
3.51609
0.992219
-5.37642
0.0963113
-9.42463
6.10541
-1.57967
0.81282
-2.50149
-0.353106
-1.22657
2.28952
-0.917879
-3.26891
1.89727
1.32955
0.265751
0.694218
0.728461
0.343208
-1.98955
-0.385507
1.11397
-1.83582
1.95901
-0.508698
2.46464
-3.95725
0.760862
-1.27238
1.4258
1.80559
1.72747
-0.535206
-2.11216
-0.664581
0.944855
0.344395
-0.26903
-1.06336
0.987991
0.106219
0.322977
-0.084802
0.559868
0.114758
-0.809338
0.134712
0.257152
0.511253
-0.208537
0.212165
-0.306082
0.351069
0.0559032
0.156262
0.0798398
-0.0750764
-0.273793
0.718894
0.692965
-1.2971
0.465216
0.359897
-0.748868
1.29392
-6.37801
6.11149
-18.1422
18.4088
-22.098
2.94052
12.7795
-2.50756
-10.6277
-8.96278
17.7528
-11.4043
-8.85599
11.3992
-5.94352
12.297
-4.58972
14.73
-4.02876
9.75004
10.5971
-2.48406
-19.5173
4.65355
-16.47
-0.762951
-0.909333
-7.81229
-19.2853
12.4341
-6.82026
7.27739
-12.8913
12.668
-0.996786
-2.21208
6.86563
-17.1166
-5.06531
8.72844
9.00486
-1.10798
0.0131161
1.04206
0.0528007
1.75297
-0.321141
-2.53981
1.76609
0.0908687
1.65811
-2.07012
-1.334
-2.39294
-1.085
4.81193
-0.167117
-1.27541
0.108529
-2.56005
0.190896
1.24119
-1.34122
-0.0424488
0.864137
0.793968
1.02033
-13.9246
13.4994
-13.7506
14.1758
2.30268
-3.19192
-13.0354
3.38713
11.5109
-20.0041
5.10613
5.6137
13.617
-15.8436
-5.23267
7.53535
12.452
-6.46712
-0.371162
-0.257705
-0.0365436
12.7462
0.150223
13.4668
11.6611
13.2091
6.42842
-7.03692
-16.6453
13.7429
9.93928
-12.6204
5.55691
0.026551
-2.62642
-4.5361
-9.48278
-5.18431
-10.0625
8.04881
-8.20213
5.71024
-3.72161
14.3173
-12.4451
3.90244
-5.77466
-9.20606
16.459
7.06441
-7.63981
-6.10235
-16.374
-3.71091
10.9413
-7.03885
-10.8265
-4.82379
7.44815
-10.9826
-5.02818
-11.8626
-0.814143
-1.46687
-0.232033
2.51304
1.19754
-0.579933
0.209208
-0.826811
-0.974413
0.460253
0.659514
-0.145354
-0.711109
0.900922
-0.189813
-0.113365
-0.597744
-6.41202
0.624703
19.4978
-13.7104
4.60506
-11.4612
0.444067
-13.0845
-5.98497
19.6942
-10.5041
-5.71722
3.13677
13.9926
-10.9656
-15.6208
12.5938
15.4159
-7.40821
-24.2348
2.76511
1.35777
2.81347
-5.41917
1.24794
3.66618
-4.40759
2.09918
6.63237
-5.96177
-4.91795
4.24735
0.6113
5.57574
0.445321
0.517377
2.90739
0.715174
3.46838
1.17224
-5.17581
-1.41561
-3.01579
-0.219557
-0.469126
-3.87996
5.48332
-1.13423
-1.7469
1.99295
0.832306
0.224029
-6.23214
1.10052
-3.28401
-2.67552
-6.5384
5.33396
-5.64044
1.21802
1.17286
-6.9106
-0.847665
-0.800659
-4.89008
-5.38758
-3.71119
4.0834
-7.89196
-5.1869
5.41601
7.66285
-0.822571
-2.36469
-4.7047
8.36105
-4.27909
-4.90453
-4.647
5.03592
7.97213
8.41823
-4.20195
-8.49537
-0.484456
4.25569
9.79837
-3.55312
-8.60994
1.43745
3.17403
10.6329
-0.180988
-7.61465
3.419
-1.04624
-10.7704
-11.6132
7.01382
2.89251
-6.373
1.69805
5.36293
-7.81215
0.751164
-6.13303
3.98214
3.84895
-14.5339
-0.375738
8.00758
6.90207
-5.24515
-0.866905
-8.42185
8.39002
-1.39224
-3.04105
-3.95673
-5.07858
7.33556
-10.1346
4.68024
-5.31948
-10.0602
2.38458
-3.10262
6.08097
-2.65297
9.01969
8.50609
-4.26456
-5.63377
-1.94876
2.64271
-11.9237
3.93614
0.0626651
7.92487
-5.60305
-7.18752
9.29074
-1.46325
-6.89728
6.54746
-2.71319
-8.09883
4.1999
0.398798
-5.01101
1.724
3.34968
-4.84608
-5.76798
2.82127
-9.02252
-15.1527
12.5915
15.4132
-12.852
-2.57586
-17.5577
8.66441
11.4691
-26.7211
10.0868
14.0584
9.02176
-13.4427
-13.1367
-9.93302
-7.76636
0.539799
-12.3056
-1.20249
12.9683
-1.01888
11.3694
-9.81077
12.8759
-13.6906
-0.204106
-11.3665
10.0887
9.94216
0.633169
-1.64976
-14.1361
-16.2219
15.5843
10.7244
9.73649
-11.8098
15.933
-12.9901
-0.9968
2.2051
-2.49401
-1.42622
17.8988
-14.2675
-0.119352
-2.08582
2.06688
0.138291
-0.217123
0.0977713
-2.20719
-1.37638
0.202197
3.38138
-2.42432
-8.54577
-2.37366
5.95982
4.95961
0.245878
-1.52785
-7.26379
3.45017
-2.31013
-3.56436
-0.114962
2.18876
-6.77505
3.92747
0.473917
-1.14715
-5.38202
0.28842
-0.489308
0.29866
-2.94455
-0.156564
2.42564
-4.32729
-0.385112
6.22997
3.3858
3.91213
8.45961
-15.3465
2.97473
8.66707
-11.9582
7.20327
-18.7956
-5.70325
11.4964
13.0024
-15.9626
0.104744
-2.93772
-6.47241
-12.2338
17.1909
1.51532
8.35925
-4.83809
-9.99357
7.79816
-7.49977
8.16123
-0.191746
16.657
-9.3994
-1.52407
-1.03475
-16.3866
11.0965
8.66321
-24.5978
14.9826
-16.1199
7.5411
-14.8405
0.313785
17.8232
-2.73587
10.5219
-5.11301
12.4142
21.8266
4.57815
3.91197
-7.11017
-5.41174
12.4502
5.46886
-8.2546
-9.66443
3.70987
4.86739
3.87291
8.69295
-3.29863
-1.48235
3.43021
8.43677
-1.24794
-3.71902
8.39718
-2.58834
4.2329
-5.05088
-12.939
6.37672
7.53647
-9.55282
5.72622
9.13907
-2.19549
-1.47472
6.97191
7.03455
2.89393
1.48964
6.71138
-10.2183
-2.63311
-0.916152
-17.5568
-13.0772
-4.05341
2.0968
23.5205
-21.5639
-17.4726
0.204194
13.215
-15.4803
-3.63148
1.63921
-1.80471
-12.796
16.6975
-8.62221
7.02169
-7.41263
-11.529
3.46126
11.2975
-4.5297
-14.4783
7.71052
18.2957
3.13891
-10.1372
-7.6773
13.1771
7.71127
9.78052
-6.85869
-10.6331
15.0147
-7.61475
0.311277
-19.5825
8.48914
3.41607
-6.66307
-14.2725
14.1394
-2.88924
-4.64191
-10.3855
-16.0303
-10.2974
6.64037
6.09789
-2.44081
7.71793
-12.9735
-5.04191
-10.4172
13.3446
3.03374
-5.9612
11.5671
-16.538
-5.44626
3.01533
0.0501672
8.50163
12.5577
3.80226
-14.0148
14.2981
6.35709
0.086455
-6.38335
7.6465
16.2487
-17.7662
-6.12898
14.7619
-7.02894
12.0289
-2.89725
1.97706
10.7663
-0.185666
16.3739
-4.90867
4.78346
15.6801
15.4557
1.57816
12.4278
0.953665
16.5894
-1.86299
16.8299
-8.02986
-7.17829
2.95363
12.2545
-9.19544
-2.58457
3.75015
0.700247
-10.6022
0.706472
11.4064
-12.1941
1.48789
5.61523
-9.65934
1.45954
-0.141775
4.3699
5.6246
9.89057
-9.89993
-5.83771
14.4159
-5.88377
-2.77835
-0.997227
3.29979
-7.69155
-1.49201
2.5558
-9.85817
-1.42674
-8.21152
-4.21065
3.01271
-4.63977
-3.87788
2.66626
8.76571
-7.55409
3.13801
-3.76319
-3.2527
-2.14172
5.09413
-5.73076
-7.74784
3.39541
-6.03657
-12.2811
27.0975
-7.17223
-7.64412
5.11275
-16.6728
-0.72108
5.63194
22.5041
-23.0233
-0.814207
30.3997
-6.47252
-23.113
7.49034
14.4124
-34.9594
13.0567
22.1481
-17.3303
5.07344
20.0999
1.92419
21.0173
6.56026
-2.17548
18.7921
4.40064
17.6522
2.32035
16.1569
21.7331
-8.0399
-8.73825
35.5703
25.7693
28.6399
-17.2783
7.95472
-2.16049
-10.3534
4.55919
-10.6083
16.8808
1.68226
-12.5201
4.21018
-1.49585
9.80573
-5.32051
-12.899
19.8401
-1.62066
14.7242
-6.53842
-13.5063
-1.54753
3.75165
-11.1612
3.6637
5.33701
19.6086
-19.4076
-10.5544
-9.94424
18.9445
-7.15237
4.79345
0.811389
-2.4224
-11.2684
-5.32116
-1.0466
-3.64507
-6.0893
-9.67325
-16.4161
8.70949
-2.23767
-7.76355
-12.2976
-4.45255
-6.95792
-2.81725
-10.8694
5.92309
-9.6922
4.04259
0.366119
1.67226
-7.18252
3.81729
7.40782
1.03487
0.802309
4.52043
-0.0736949
-1.62546
3.57006
1.31649
-3.22467
-0.874674
7.91664
-3.57607
1.38627
8.00687
-4.75645
-0.905799
-2.34462
2.81047
7.62035
-2.42396
-1.48046
6.86025
-1.14558
5.50585
-0.831278
-11.8363
-2.49583
15.1634
-8.71188
10.0917
-2.21114
-13.7901
6.56835
-2.21678
9.43849
-1.63897
-0.016957
-7.05595
-2.45269
-11.0226
-10.0222
9.88219
-2.35582
-11.8341
-1.97329
11.6693
2.1381
-5.68868
-19.9355
-3.58263
0.128802
-6.53721
5.81303
10.889
-10.1648
-19.8999
-0.502836
13.8655
-6.89255
7.8946
-15.1557
14.1536
7.1878
-19.769
-12.1835
-3.07686
11.6777
-5.76139
-6.24386
-10.757
0.208054
13.9054
-3.9403
-10.1731
17.8356
-4.94267
-12.6849
-5.77994
16.4323
3.25301
16.2158
-4.1601
-2.95136
11.7549
-13.7462
2.65209
8.34727
-13.9507
-0.57465
-12.619
1.64646
11.5472
-7.37484
-0.102068
6.90226
-2.00816
6.38824
7.53684
6.67079
7.45954
16.5096
8.53301
-9.82122
2.6294
-6.90111
-5.74217
8.58598
4.61574
-13.9655
-2.57236
10.7957
-2.80313
22.2095
0.202596
-4.94723
-17.4649
13.9121
-1.3589
9.65628
5.15581
-11.4436
20.1999
-3.78978
17.6088
-8.12266
-5.6964
21.1652
-12.141
-12.8139
-22.6186
29.3088
-6.48763
-5.48173
-13.174
-3.96287
-7.8798
-1.68213
14.7177
-13.4822
4.24345
-8.59339
9.68813
16.5141
5.89712
6.67464
-16.1337
8.54867
-5.44404
-19.0824
8.39277
2.25242
-19.8375
5.74524
-11.6155
0.452668
17.4125
-17.1953
6.87055
10.7774
-16.9318
14.8766
29.8613
-25.8599
-22.8386
18.8371
-1.92769
16.1693
15.6197
-4.29507
27.3894
-10.7621
-12.3322
12.5145
-24.4056
29.8216
-17.9304
-16.7952
3.44987
15.3529
-32.3492
15.0686
7.08257
10.3171
-41.8053
-20.2145
10.5018
-14.4385
25.4963
-0.534871
14.0764
16.4084
-29.9499
-12.3795
9.8519
29.2136
-26.7667
7.87021
-27.0888
12.1154
-10.2547
46.7373
-29.042
-3.1987
-14.4966
25.5665
30.9296
-9.75876
-21.7171
29.0145
-20.4668
13.1694
-37.8598
-12.8994
47.8624
6.71861
-5.12375
-31.79
-0.946024
13.3396
8.71325
-42.5197
-20.0061
-20.6102
25.9211
14.6953
-15.7618
3.14287
-7.38722
24.4392
-30.964
26.0551
-19.5303
27.0343
10.7445
-4.07121
-27.2593
26.2068
-1.92118
-34.9013
5.85855
-25.0046
0.328852
4.06553
-23.4962
-17.2703
21.771
4.61303
32.1572
16.648
-29.4885
3.96971
9.11298
-1.58722
-11.4955
-12.004
11.4802
4.49355
5.72896
-12.816
-4.91698
-8.73854
14.7289
2.15948
-8.14979
11.3039
-16.6022
-3.44024
-4.52935
-2.4615
18.471
-3.7365
8.32013
-1.06653
5.65474
10.1406
6.5009
11.4081
-3.5197
14.6014
-6.78972
-0.561312
2.83348
4.51755
-4.0915
0.21367
-2.9119
2.34868
-1.7032
-4.73697
0.754568
1.0328
-0.571903
2.39019
-1.06372
2.69154
-1.31473
-1.94872
-1.53641
1.64536
2.28124
1.41498
-0.259845
-5.16174
1.93403
6.06119
-2.91419
-2.03388
0.500359
1.62037
-3.82393
2.88247
-1.46152
0.293342
-1.71429
0.815315
0.817942
1.24921
1.67593
-2.4903
-1.85145
1.45874
1.20802
-1.63704
0.970106
1.90361
1.56426
-2.85808
-4.09754
2.64075
2.27473
-2.23994
4.86951
-0.294724
-9.54426
-10.348
24.1868
-4.29454
-15.2421
-18.138
23.8358
5.89578
7.8405
-0.137281
-13.599
-0.236637
-9.10964
6.4793
-8.98676
-12.8554
1.96957
25.3033
-14.4175
-0.912879
12.2442
-6.42964
16.4892
-10.2962
8.46465
-15.0316
8.32832
-16.7118
7.47056
-6.2277
-7.29039
15.4877
-9.13287
11.2335
7.88981
5.67146
2.92793
-4.1846
-6.04785
7.46311
-16.8348
0.238854
8.06253
-12.5548
5.9568
-3.74135
-2.14225
-0.073205
-1.18169
8.3919
-1.25341
-1.13202
2.44328
-5.88686
4.5756
1.17136
-4.39509
2.09171
7.38512
-8.0452
-3.08127
8.64672
3.81245
-2.36338
-4.7938
3.34474
2.10535
2.87845
-1.00573
-1.03023
-3.8509
-3.52173
-1.87908
-6.26772
0.382603
10.3588
6.93509
-3.69543
-13.5985
-1.99194
5.71269
6.63808
3.00539
1.93777
7.54854
-1.67659
-2.86657
2.59625
5.47089
-11.7626
-11.1231
3.18805
15.4836
-1.39826
0.119588
-9.84441
4.67104
-7.44441
5.36961
8.6399
2.9645
-6.13351
3.9672
10.3854
9.63456
-10.0302
-1.0026
16.7898
-2.39469
19.0654
15.008
0.47139
-34.5448
-0.0555634
26.5022
-7.38122
-41.7204
10.2256
16.101
15.3937
2.39281
-14.7266
-29.3865
43.0886
-12.3103
-28.3855
28.7296
24.5847
43.1648
-40.4671
2.73942
28.7807
11.6447
-12.0612
16.5969
-4.59125
9.71635
-21.3062
-28.4575
21.9645
9.23251
14.1817
-16.1371
18.3551
-23.3654
14.1159
43.3944
12.0544
11.6773
-5.37654
20.9512
7.20418
-17.6056
9.01783
30.5523
-9.48874
6.06483
-13.1118
11.2911
22.7719
-3.84307
2.40855
3.26511
34.4248
4.95936
6.85674
-27.345
15.5289
10.7497
26.8555
-32.6458
0.490745
19.9207
-13.5547
32.2183
-20.9779
37.0646
-16.1305
5.92137
46.8676
3.07044
-22.245
-27.693
22.3642
18.0762
-20.5197
23.7474
32.1925
-23.7216
46.3405
-0.228842
1.27902
30.1885
15.4001
-45.3733
15.5104
31.1419
-18.4108
18.1625
-45.125
33.8742
-12.7276
-3.2878
15.2081
20.2722
18.8321
24.2206
12.6616
-4.83076
26.0433
11.0674
20.4263
-18.5945
32.3067
1.79818
19.2274
-0.573703
15.841
-0.511319
16.6348
-3.71531
-12.4081
-4.94505
20.5077
-16.0739
-2.53094
20.76
-23.1741
12.816
1.39665
-16.7436
5.55722
13.6211
-2.54355
21.3138
4.75112
-5.33603
14.2887
3.8633
18.287
-2.86304
12.9415
-15.2601
-17.5668
-13.9014
10.1885
21.2796
2.64627
-19.5871
-0.625906
16.0908
4.00002
-1.55272
13.6435
15.1626
0.848133
5.30304
16.198
-22.8436
-1.57707
3.87368
0.0922174
14.0963
2.91532
10.6946
13.6708
5.46436
9.57211
3.13954
-7.0934
10.1009
16.1495
-5.05871
8.24468
-8.42883
5.24286
0.0290052
-3.90131
-1.1864
-10.2037
8.86565
-7.46227
8.80037
-3.26361
-12.5061
5.56601
-6.46493
10.5438
4.78678
-4.95633
-1.47959
-6.33273
1.92535
-8.01391
12.4213
4.68666
-0.475586
-2.59347
9.20547
-6.94372
12.5949
-12.5738
5.43621
-1.29125
-9.61942
-6.85568
-9.44336
1.22342
7.19513
-0.700281
-1.22189
-5.27296
17.563
-18.3818
-5.83547
4.32795
-0.595283
-5.94046
8.44984
-6.70821
-7.46185
5.72022
3.77003
1.82828
2.85153
-8.91297
-10.7252
6.87534
12.7628
1.82733
4.41754
-12.9531
7.54138
-14.627
-9.6263
6.26598
-6.58738
9.9477
5.64041
-7.72533
-7.65748
3.13285
1.93743
2.5872
9.06923
-12.3092
7.03389
4.97083
-2.9355
4.91312
5.25362
1.89279
5.68505
-8.95223
10.2319
3.63347
-0.211365
-5.22947
-3.09015
16.3679
-8.04831
-26.5236
1.06189
14.0815
11.3802
-1.66224
-26.2496
1.38821
-16.0367
-2.5373
13.3446
7.91576
-0.841119
-23.1114
-20.5624
9.90763
11.7166
0.108609
-22.3332
-5.43643
12.2539
-17.9133
9.93952
-19.2354
1.43074
18.4262
2.22052
0.773581
-21.4203
7.77921
11.9119
-1.2649
-6.86447
-4.74086
6.1593
5.44603
-13.7819
-8.45378
15.3713
-13.0381
13.5964
7.22092
1.94137
-12.759
-13.439
11.5689
2.06668
-14.7321
-4.71292
18.6865
-0.377095
-3.57679
-18.1556
16.9915
-24.4444
3.00954
17.858
-2.02985
-26.0492
3.63468
-20.876
0.690606
-16.6958
14.9924
3.28857
-22.0979
0.279589
-23.0402
-14.4748
-17.3889
4.08447
13.8752
-0.570812
-8.28341
5.35919
-14.4647
-1.52298
6.56589
4.88834
-9.93126
12.3617
5.93283
-19.8175
1.21363
11.0433
0.104767
7.17563
0.603898
18.7145
9.14227
-15.4937
-12.3631
11.9561
7.829
-1.0706
-16.7529
10.8413
17.8677
-5.40458
-2.20603
9.26429
-12.6593
11.1414
2.20737
6.76937
-3.92471
2.51452
16.2067
4.43786
-14.9065
5.34566
-10.498
4.22144
17.1179
-4.85929
13.5004
4.8166
9.18507
16.2784
-9.25673
26.9069
5.13161
10.1214
0.624967
-15.878
10.3327
-11.7547
6.55368
-4.71724
1.1668
13.8831
-2.80846
8.21259
3.50791
-0.370529
-14.8921
-8.71385
-3.3749
13.2556
8.45296
-4.07896
2.64324
-7.01724
5.649
8.02521
-4.31923
-9.35498
11.4945
2.78445
-8.62993
0.72544
12.116
-4.81627
13.2176
-4.03916
-7.59797
2.39202
2.6058
6.08023
-10.4998
9.73074
-6.68207
8.29827
-1.06248
6.24207
0.675621
-4.75635
-2.16134
1.46135
2.89126
1.88946
-3.67405
2.29185
2.84356
-0.958588
-2.03984
4.18165
6.907
-8.19739
-2.18493
7.91327
-3.43649
-3.67773
9.15192
-2.85706
-2.61713
2.00426
-5.37722
-0.304771
3.12391
-1.78472
-2.29778
-5.37244
6.31142
3.06928
2.1742
3.90844
-6.42585
4.12268
-6.2063
-6.91582
-4.87028
4.69
7.0961
-9.07199
0.990134
1.16603
-2.31177
-3.01913
0.46062
6.8048
-8.46237
-0.654198
5.74132
-8.62783
9.69131
-6.54655
16.9779
-4.45933
-7.63178
7.16491
-8.82127
2.64649
-5.47811
6.09648
-8.27915
-0.0748903
-0.108325
-4.0812
-10.0247
-9.03534
0.110114
0.103951
13.4414
-0.346952
-11.3713
-1.72312
16.4897
15.6583
-19.8373
-12.3106
4.04982
10.8837
1.55615
12.0953
5.39592
14.4082
2.97786
-1.72785
13.0661
12.2259
23.9195
-12.1745
-3.65246
-8.09252
0.47699
-1.9101
25.3526
-15.0394
-0.663669
16.18
-15.1185
22.6286
-14.7261
-11.555
-1.11832
21.8368
23.1819
-16.9992
-6.45354
0.270837
0.608979
21.4546
10.8176
-13.4998
-14.317
15.537
-1.74147
-1.07665
13.4791
-6.45396
-14.7256
15.0693
12.8286
-0.322537
3.00297
-15.509
1.69342
13.8467
-2.71151
21.4226
16.7717
-22.9989
-15.1954
-2.79581
10.5409
13.6775
5.30129
8.67456
11.5593
2.49629
-14.3782
-1.79602
15.0488
11.9855
12.4021
3.24123
-23.2371
-19.3001
7.09488
11.3355
0.869727
-12.7549
-0.799102
-5.74605
1.28512
17.0133
-6.31292
15.1158
-0.0322021
-11.8423
10.1504
10.2667
2.98282
-13.2415
-18.8546
4.95641
20.9931
-13.01
-6.64376
16.3919
-10.0593
-1.11254
0.8291
-0.786595
1.07004
0.63417
-2.14761
0.400894
1.85595
-1.76082
0.53904
0.37362
2.31143
-1.76106
0.16404
0.810429
-2.07951
-1.82917
0.796502
0.835796
-1.46826
0.6042
2.49283
-2.30052
-1.79203
2.76985
-0.973574
-0.573869
-0.728623
2.27607
1.93756
-1.0511
-1.86004
0.865732
-0.656741
1.72857
1.02582
-1.24379
-1.54285
0.099523
1.19397
-3.48887
-1.4594
-10.3439
14.5384
-15.3918
11.1973
7.67749
-0.146269
-17.8751
1.00284
-3.21162
9.88628
-4.46727
20.0085
-24.6082
-1.01756
5.29007
20.3357
-13.5461
-1.51159
-9.55055
1.6154
-5.24767
-11.7595
-3.23431
-15.5528
14.3198
-18.3898
14.138
-11.9475
-19.9884
18.0591
-11.1209
-8.4497
20.1375
-9.95496
-3.9824
-8.26665
-0.794652
-2.05965
2.98847
-16.9931
5.73794
-18.914
4.42427
7.26693
-11.6912
8.83038
-7.98589
3.57977
1.75687
-2.7397
8.24977
-1.17609
11.7633
1.92364
-13.6148
-7.16193
1.09968
1.25042
-17.9399
1.84137
14.8481
-15.6468
3.02078
13.8765
-21.9805
19.6297
1.84441
0.506419
-2.21029
0.283514
-20.0537
-3.21568
4.90541
-19.2485
0.386012
-10.6268
12.4715
-0.810737
1.19279
-7.54398
1.47937
-15.905
-14.423
13.5246
14.1401
-14.871
1.56152
-1.09793
-17.8671
-10.532
1.13592
7.23029
1.48335
-9.84955
2.41959
0.216133
-13.524
10.8882
16.712
9.35215
-18.9784
-7.08571
-9.48294
14.7253
11.4696
-6.87562
8.92867
-2.71221
0.659152
-9.08581
2.50794
-0.297749
15.1486
2.75569
-15.4848
-6.4825
12.5453
0.754052
-4.48086
-9.89293
10.3426
-2.87066
2.42104
2.43884
-12.1156
-3.27384
8.3986
4.22739
1.50481
-18.0444
-7.22407
8.20463
-9.7987
1.10372
-3.69069
12.3857
-8.00189
-24.4935
22.6967
2.32528
21.4049
-13.4005
-10.3297
-12.2112
2.32984
3.8116
6.06973
-12.8556
-15.5839
16.2283
-21.9552
1.09773
-6.95234
10.3452
16.0883
-19.4812
-3.45553
-2.39309
-7.34702
-8.83593
18.5082
-8.7787
-10.3296
11.7612
-7.22305
0.774182
0.639022
0.870206
-11.9705
2.27999
-8.53536
-10.6582
-7.47245
6.28987
-7.68954
8.87212
-10.947
6.48717
-3.01262
0.207802
-10.9755
12.4201
-1.65231
-9.70438
-1.03481
-6.18802
-3.66181
16.1397
-6.26067
6.55981
0.241523
-16.1976
9.69537
-22.1939
8.64547
13.79
-0.919405
6.97174
-15.7567
7.46079
-19.3557
3.84618
-13.072
-6.78727
-11.5605
-0.294384
5.02491
-10.5774
15.561
17.4595
-16.786
6.58773
47.9117
-29.3118
-1.75184
-16.8481
1.34773
21.6711
24.8928
-33.8174
-2.8291
24.0363
12.6102
-20.0036
-43.1256
-25.7434
12.9142
14.1769
-17.3925
-10.1027
-27.1352
14.1539
10.1522
-12.1951
8.97408
-23.9142
0.5674
-32.766
8.67817
37.0292
10.2106
-14.8248
17.5284
-32.8601
29.2789
17.7351
-5.59214
-18.2939
16.4178
9.90926
-25.7596
25.9807
-7.09195
14.1608
-15.1355
-2.70348
2.0395
19.1894
-14.8723
2.04542
14.4405
-6.79668
3.15719
-14.9954
18.6349
15.9964
-18.2294
-1.39777
4.81985
-7.01565
18.1922
-11.6803
-0.389092
-10.6997
22.7692
-1.79438
-16.6826
-2.75556
22.556
-5.52605
0.800834
-13.5042
-10.3205
19.4745
-9.54312
3.15898
-15.2738
-19.6025
17.2354
2.68522
4.01608
15.7955
-22.4968
7.69275
24.9254
-29.933
13.3598
-9.40182
10.3603
17.251
3.51791
-1.2944
22.1882
7.86646
6.73674
-26.413
11.2545
-16.5247
-6.12563
9.19776
8.39699
1.433
18.7684
-8.94696
10.436
9.77948
-13.4787
-6.47338
18.3424
8.70315
3.93967
11.6607
7.04559
-10.0032
-0.901012
9.68369
1.94071
2.23353
-15.2124
11.0381
15.2805
-6.65339
6.92419
-15.5513
-4.49781
-0.991759
20.7701
-12.7818
3.50268
-2.09925
11.3784
4.1183
-14.9594
-4.4145
14.9247
-15.0081
-9.92076
-3.82842
12.7574
-16.5937
0.0195275
21.3564
-0.930202
-9.96958
-10.4566
2.14285
2.20741
17.0062
17.6962
-9.24136
-9.38509
4.48195
15.3572
12.9246
4.01637
-12.8227
-0.16641
-0.45961
-12.7038
17.1797
-4.20544
-12.2279
15.9737
19.3885
-11.7196
-17.6385
17.1815
13.8867
-13.2331
-13.6915
14.1819
10.0807
-19.8579
-4.40468
-7.25556
12.1759
9.2616
6.38059
-3.55549
-15.6889
4.07796
12.3033
-0.692375
-17.4658
-11.964
13.741
2.26172
-14.598
18.7168
-4.46135
-11.729
18.452
3.69804
12.5558
14.3054
-13.1602
-5.60653
19.8865
-9.94104
4.35989
4.42806
21.0022
-5.5437
22.9655
-14.8394
-10.058
-2.25495
-4.36779
16.6808
-15.5591
14.9974
-9.49638
9.90027
-6.98794
-2.91233
3.46658
-0.780909
13.9233
-16.609
0.0822814
13.2846
9.24667
-4.73104
-6.77057
1.53783
6.64667
-2.39167
-5.79283
9.06294
-7.52511
2.075
2.41196
-13.051
9.8581
-6.79228
9.28652
-8.51432
-17.8003
19.5223
-6.43932
-18.6367
-15.6198
16.4562
-15.5799
-9.49613
-5.40925
-3.3673
-6.84321
-14.3425
-7.1716
1.7296
11.6846
1.57285
-14.9871
-17.7725
15.4408
4.06137
0.397622
-0.580228
-17.5899
-1.49204
-0.272466
17.2053
-1.52147
11.714
6.37183
-22.8758
18.63
-2.12603
14.0276
-12.6978
5.04205
16.6201
-3.11881
-17.4178
3.9165
17.6234
-1.00327
-18.021
-2.19725
19.9458
-0.966588
13.4727
5.93978
-1.56658
-27.249
-9.28831
2.53028
19.9628
-1.66546
0.332718
1.23512
17.761
16.1181
-20.8035
-1.46963
16.5845
17.2776
-18.2397
-20.6753
-19.3153
27.7256
12.265
-5.55228
-31.0506
15.9276
9.39561
-3.02564
-25.6853
5.93959
34.9335
-13.1474
-29.8028
-10.2502
17.8761
22.1768
21.0393
-34.4958
5.39649
8.06003
-6.07652
33.0554
-30.4624
-5.07349
5.73315
-25.8669
0.766674
0.438614
-21.1677
-5.13785
35.6049
-28.6745
-6.49182
25.287
15.7144
-12.9265
32.137
26.7486
-37.8981
-1.77691
5.3094
-22.9215
-3.55555
-24.9831
1.61801
1.7805
-2.60521
-1.82113
2.64584
-1.01262
1.13665
1.65647
-0.384462
-0.0561459
-2.1646
3.26131
-0.154475
-3.49129
1.85247
-1.49248
-1.05436
0.694368
-1.00118
1.95964
0.894008
1.24751
-0.213697
-1.43326
-1.24426
6.62174
0.551846
-21.0778
13.9042
-5.63203
5.527
6.72677
10.8639
-0.715319
4.19577
-14.3444
14.1696
6.94447
-20.5622
-12.6397
12.7538
17.0993
-17.2134
-1.50372
-11.1359
-12.0377
9.85756
13.044
-13.5414
9.96298
3.49132
13.6763
-8.86813
2.13625
-4.53168
27.143
19.1076
0.810347
-2.91704
-14.5971
16.7038
-2.02781
-12.8446
15.6828
2.59385
1.56334
-18.4388
14.2816
-15.3153
15.8814
-15.3841
14.0304
6.40199
-12.4677
-8.53137
-6.44261
-4.22804
-16.6615
5.57421
8.25221
-4.05663
2.28557
-6.48116
-18.8527
11.7208
-2.28589
-20.6234
-10.6707
-1.52023
-14.633
-2.84848
-15.3333
1.33128
-16.0849
-12.1879
13.0881
-13.5937
5.33809
-4.83243
-6.91514
7.16904
12.8342
8.43602
-2.5144
-19.5154
1.52088
9.37898
4.16724
-8.20813
19.3483
-2.80032
-7.65714
9.17802
-11.5317
1.54089
11.9532
-1.96238
-5.3709
-13.818
-17.1934
9.3081
10.2306
-14.4957
-14.6846
18.9497
-0.303218
10.5338
-0.597181
10.804
1.56318
-11.77
2.15523
-17.2481
9.40701
9.31623
-7.91925
9.10379
-0.802472
11.6726
-9.30699
15.4165
-14.0637
0.337372
13.3612
-14.0925
0.394025
4.25931
-6.92831
18.0855
-0.732764
-12.9687
12.8212
0.88027
8.37103
-3.66058
0.00808671
16.8785
-12.5887
-0.030474
-0.228738
17.7113
-0.604119
0.628213
8.08019
13.2207
-4.57662
-18.9796
17.9418
-14.9117
15.9496
-11.8359
-2.94191
-4.20186
5.03639
-1.68538
14.5908
-26.788
1.80221
10.074
-22.8298
-15.794
-11.8192
18.2937
-1.43811
18.524
-14.741
-6.72494
12.14
4.69864
-19.9372
9.9202
31.4652
-8.40089
-33.2101
10.1458
27.27
-15.742
19.245
4.46828
-7.23206
-16.4812
12.8187
5.25097
1.1754
2.03407
-33.2648
-13.7678
14.0804
12.5061
-7.15792
-2.14162
16.0104
-21.2084
6.52035
12.3885
11.0478
-11.8969
-11.5394
-6.03825
14.4955
3.93122
-21.4823
4.08153
14.6168
2.7839
-9.86594
-0.568505
18.7847
-12.637
1.78701
-7.93473
23.7562
-7.085
2.11352
11.5015
0.134891
-23.5334
8.3062
-2.84291
13.7017
4.8754
11.2601
-22.6064
11.4812
6.91553
-8.29245
-17.6425
-16.8738
21.1549
13.3613
1.42725
-10.7636
-8.53098
0.0696416
35.1482
-22.2476
-12.9702
32.485
-11.9194
-20.4959
5.22608
15.7184
14.2036
18.1216
19.5895
-21.51
-6.38582
5.64815
11.1954
13.0043
-8.48129
-11.0184
2.27332
12.7274
-3.98235
-11.5192
-1.88118
2.38199
16.6699
-4.68688
-12.8876
0.904553
11.3706
-6.21993
-15.7534
17.2373
6.10758
-7.59147
6.75615
-20.6375
-1.87203
-1.94942
15.4181