/*--------------------------------*- C++ -*----------------------------------*\
  =========                 |
  \\      /  F ield         | OpenFOAM: The Open Source CFD Toolbox
   \\    /   O peration     | Website:  https://openfoam.org
    \\  /    A nd           | Version:  10
     \\/     M anipulation  |
\*---------------------------------------------------------------------------*/
FoamFile
{
    format      ascii;
    class       volVectorField;
    location    "20";
    object      U;
}
// * * * * * * * * * * * * * * * * * * * * * * * * * * * * * * * * * * * * * //

dimensions      [0 1 -1 0 0 0 0];

internalField   nonuniform List<vector> 
75457
(
(5.04939 0.686776 -0.807084)
(5.20623 -0.165382 -1.03762)
(7.09507 0.799482 -0.663084)
(9.1867 0.359541 -1.03854)
(3.73631 2.03074 -0.0211523)
(3.83095 2.22647 -0.219909)
(5.42073 0.354261 -0.562158)
(5.15257 1.34353 -1.03654)
(10.0761 0.0502329 -1.24979)
(9.88694 0.280142 -1.0639)
(10.0815 0.463771 -1.02203)
(4.03199 1.55036 0.110721)
(4.07786 1.30416 -0.368164)
(8.74446 0.648624 -0.517981)
(12.036 -0.358405 -0.0364905)
(12.1252 -0.357673 -0.0227819)
(12.4779 -0.431869 -0.214153)
(12.2557 -0.456203 -0.264781)
(12.2034 -0.394422 -0.0554994)
(12.4904 -0.374989 -0.141878)
(12.3058 -0.429095 -0.224508)
(12.3795 -0.424152 -0.0806205)
(12.0926 -0.384728 -0.0439785)
(12.0851 -0.394237 -0.0809158)
(12.3545 -0.447376 -0.0694672)
(11.8511 -0.438444 -0.228986)
(11.806 -0.464439 -0.252186)
(11.3073 -0.71078 0.411933)
(11.1422 -0.733994 0.540791)
(11.2715 -0.714344 0.383793)
(11.4553 -0.655878 0.36142)
(11.0758 -0.713061 0.475108)
(11.0894 -0.705214 0.495008)
(11.7414 -0.524993 0.404713)
(11.7246 -0.509447 0.368771)
(11.8889 -0.511647 0.601936)
(11.7951 -0.560577 0.44585)
(11.0257 -0.734858 0.553223)
(11.1604 -0.721637 0.554873)
(11.7926 -0.474301 0.411323)
(11.8159 -0.478615 0.435189)
(11.8049 -0.510097 0.443446)
(11.8619 -0.570415 0.59905)
(12.709 0.670792 0.583285)
(12.4598 0.693105 0.522672)
(12.8915 0.631317 0.5607)
(12.9022 0.617319 0.584058)
(12.6784 0.671381 0.577882)
(12.3687 0.41264 0.123031)
(12.5793 0.555643 0.194822)
(12.5779 0.559349 0.17615)
(12.4315 0.42708 0.165485)
(12.1363 0.467176 0.0394896)
(12.5086 0.551524 0.173687)
(12.6371 0.510095 0.240701)
(12.6318 0.504306 0.210853)
(12.208 0.554643 0.116576)
(12.2244 0.547854 0.0981756)
(12.3237 0.403251 0.0804268)
(12.0955 0.448009 0.0280699)
(12.1689 0.51151 0.0798476)
(12.4032 0.415695 0.125739)
(9.92572 0.0569027 -0.290067)
(9.93417 0.067123 -0.314304)
(10.1194 0.0909045 -0.24635)
(9.91941 0.0624927 -0.284569)
(9.94384 0.0571712 -0.266192)
(9.89205 0.0361278 -0.262548)
(9.91017 0.0423715 -0.202547)
(9.80245 0.0287376 -0.224355)
(9.82016 0.00952135 -0.22233)
(9.76482 0.00307798 -0.234122)
(9.94111 0.0499152 -0.210649)
(10.1156 0.0920501 -0.246406)
(9.92268 0.0492981 -0.189919)
(10.0937 0.0825359 -0.216278)
(10.0842 0.0741265 -0.204884)
(0.745818 0.945358 0.51052)
(-1.0044 1.23557 -0.684985)
(-0.742114 1.0698 -0.557515)
(1.84605 1.20691 0.726067)
(-0.899934 1.50212 -0.194565)
(0.750683 0.728321 0.285988)
(-0.204472 0.592272 -0.128997)
(-0.522733 1.16265 -0.242144)
(-0.800542 1.34145 -0.628099)
(-0.165277 0.943667 -0.688427)
(0.0548053 0.752077 -0.6989)
(1.86297 0.862682 0.10633)
(2.26114 1.12754 0.49341)
(0.402286 0.608884 0.0219091)
(-0.156919 0.559287 -0.277365)
(1.02318 1.24598 0.800351)
(-0.349555 0.943654 0.252122)
(12.5659 -0.277955 -0.0144118)
(12.9473 -0.283728 -0.0158957)
(12.947 -0.286842 -0.01541)
(12.9662 -0.286873 -0.0105144)
(12.3481 -0.276159 -0.0167386)
(12.6016 -0.274731 -0.0161248)
(12.5981 -0.285963 0.00768189)
(12.4594 -0.266234 -0.0149999)
(10.0177 -0.00987769 -0.0193824)
(10.0281 -0.0091291 -0.0161992)
(10.0211 -0.0148756 -0.0218746)
(10.0214 -0.0194393 -0.0153566)
(10.0125 -0.017412 -0.00651177)
(10.0242 -0.0172854 -0.005603)
(9.8558 0.000721131 -0.0202942)
(9.93386 -0.0143916 -0.014837)
(9.94536 -0.0181602 -0.0109785)
(9.90261 -0.0188551 -0.00150473)
(9.87144 -0.025778 -0.0229127)
(10.7616 0.115067 0.0672361)
(10.798 0.138518 0.187761)
(10.3951 0.0974547 0.11311)
(10.3847 0.0318739 0.0383419)
(10.7763 0.0868927 0.205336)
(10.6492 0.151387 0.116434)
(10.5498 0.201898 -0.0212069)
(10.8636 0.10674 0.268847)
(10.856 0.131469 0.277856)
(10.7524 0.129396 0.271612)
(10.5558 0.153605 0.127757)
(10.4571 0.126199 0.0899677)
(10.5019 0.123429 0.142337)
(10.5552 0.166259 0.0564774)
(10.5007 0.0934668 0.150963)
(10.5402 0.0578057 0.0826302)
(10.64 0.117265 0.229577)
(10.7347 0.115854 0.246864)
(11.3322 0.00544597 0.383053)
(11.4046 0.0790398 0.332822)
(11.4072 0.0554693 0.364261)
(11.3339 0.0331457 0.326558)
(11.3307 0.0189206 0.318514)
(11.3197 0.0792818 0.336384)
(11.2509 0.0377068 0.314593)
(11.2573 0.0274721 0.362277)
(11.2065 -0.008048 0.333693)
(11.9628 0.0348553 0.190564)
(11.97 0.0206175 0.211429)
(11.8608 0.0138362 0.245646)
(11.974 0.0299814 0.159762)
(12.0074 0.0184425 0.180355)
(11.7047 0.0252236 0.123147)
(11.8781 0.00443347 0.25363)
(11.912 -0.00608907 0.217104)
(12.8572 0.0434934 0.0101601)
(12.9499 0.0593138 0.0436182)
(12.7178 0.0238823 -0.0539493)
(12.7389 0.0933918 0.0246911)
(13.1533 0.0502878 0.144215)
(13.0967 0.0935079 0.188677)
(12.9162 0.0573587 0.0854475)
(12.7484 0.0894117 0.0221234)
(12.7166 0.0765607 0.0701071)
(12.6568 0.0754928 -0.000409325)
(13.0742 0.085321 0.175683)
(12.7418 0.0923943 0.034268)
(12.7582 0.0375294 -0.00458003)
(13.0558 0.0847537 0.217136)
(12.6735 0.0823421 0.0685522)
(11.5444 1.08502 0.912084)
(11.2987 1.24326 0.90204)
(11.2096 1.30772 0.862754)
(11.4004 1.21765 0.815665)
(11.2657 1.11148 0.775475)
(11.7416 0.947312 0.879937)
(11.5802 0.758492 0.572496)
(11.4557 0.884005 0.700137)
(11.5841 1.27451 1.04214)
(11.4659 0.95964 0.678515)
(11.5708 1.07565 0.716444)
(11.8361 1.14667 0.919541)
(11.6625 0.93545 0.621648)
(12.9957 -0.0686764 -0.0694659)
(13.1191 -0.0289587 -0.0854468)
(13.0138 -0.00503781 -0.0366673)
(12.8351 -0.0338781 -0.0114778)
(12.8635 -0.0129557 0.000923872)
(12.7277 -0.0198292 -0.0400021)
(12.9655 -0.0690298 -0.0365645)
(12.9062 -0.0797553 -0.0131622)
(12.7657 -0.0872753 -0.000278853)
(13.1122 -0.0344907 -0.0987551)
(12.8538 -0.0369061 -0.0294678)
(12.9973 -0.0617072 -0.0553578)
(12.7519 -0.0329637 -0.0147546)
(12.7076 -0.0257127 0.00115048)
(9.94927 -0.0923792 -0.741541)
(9.37786 -0.263389 -0.90751)
(9.21391 -0.0854743 -1.00609)
(8.52065 -0.139694 -0.818101)
(7.93683 -0.233914 -0.899301)
(8.35539 -0.109724 -0.882884)
(11.6344 0.445879 -0.655314)
(11.4797 0.288879 -0.495587)
(11.5579 0.268998 -0.471979)
(11.6577 0.341922 -0.503793)
(11.7706 0.363885 -0.514029)
(11.4103 0.243548 -0.219446)
(11.2601 0.374234 -0.145657)
(11.3088 0.367955 -0.117151)
(11.4423 0.413393 -0.24774)
(11.6901 0.422094 -0.260973)
(11.5319 0.342849 -0.067429)
(11.9111 -0.00227413 -0.0971796)
(11.9608 -0.0159299 -0.0403415)
(12.0058 -0.0236993 -0.0364127)
(12.2252 -0.0481584 -0.0618184)
(12.1449 -2.30329e-05 -0.114218)
(11.8196 -0.0126571 -0.0580322)
(11.8254 0.0452275 -0.0831536)
(12.1352 0.000784387 -0.128621)
(12.0244 -0.00373796 -0.0810353)
(11.899 -0.0326033 -0.024526)
(12.1281 0.00355653 -0.125549)
(11.79 0.0146841 -0.0906549)
(11.7531 0.00404843 -0.0161181)
(11.7694 -0.00215703 -0.04196)
(11.7764 0.47263 -0.0282552)
(11.8479 0.49227 0.0134478)
(11.6804 0.471641 -0.0222239)
(12.0266 0.445678 0.00143726)
(11.8843 0.431125 0.042337)
(11.7821 0.526358 -0.0304336)
(11.8537 0.529226 -0.0077645)
(11.8122 0.564179 -0.052257)
(11.7155 0.555419 -0.0267352)
(12.1134 0.514682 -0.075449)
(12.1511 0.495381 -0.0657673)
(11.9014 0.530081 -0.017093)
(11.8724 0.526133 -0.035167)
(11.9362 0.527346 -0.00227252)
(12.2531 0.00314228 -0.268316)
(12.0341 -0.00140245 -0.292995)
(12.4363 -0.0552098 -0.271649)
(12.3866 -0.039171 -0.21653)
(12.4023 -0.0536478 -0.215412)
(12.4579 -0.0588211 -0.282012)
(12.1743 -0.007387 -0.219566)
(12.0375 0.0220477 -0.257626)
(12.0385 -0.00522139 -0.275384)
(11.9987 -0.0102106 -0.266432)
(12.1622 -0.0256838 -0.289767)
(12.1474 -0.0155842 -0.205763)
(12.1539 -0.00952289 -0.193716)
(12.011 7.17892e-06 -0.28133)
(11.9638 -0.00732561 -0.265404)
(12.0841 -0.00340554 -0.202485)
(12.0422 0.0171003 -0.258239)
(10.589 -0.0721759 0.134649)
(10.3419 0.0235007 0.050229)
(10.4483 0.0300919 0.0493453)
(10.4255 0.0460798 0.0638413)
(10.6825 -0.123075 0.133215)
(10.832 -0.151692 0.114674)
(10.7514 -0.226705 0.276331)
(11.894 -0.179967 0.287559)
(11.9622 -0.266967 0.278791)
(11.909 -0.235447 0.281717)
(10.6602 -0.0748704 0.155114)
(10.6681 -0.172372 0.182958)
(12.1546 0.278354 -0.153066)
(11.4568 0.175151 0.0110228)
(11.7102 0.127485 -0.239691)
(11.5447 -0.002956 -0.124941)
(11.5468 0.165131 0.0293418)
(11.792 -0.0148873 -0.142824)
(11.6939 0.022786 -0.134873)
(11.6927 0.161755 -0.0164988)
(11.9746 0.247651 -0.356494)
(11.8531 0.227787 -0.324247)
(12.1058 0.28532 -0.167348)
(11.8486 0.227965 -0.307857)
(12.1272 0.274162 -0.153256)
(12.3842 0.0513403 0.149735)
(12.3127 0.0151161 0.163843)
(12.5117 0.0770202 0.180917)
(12.4318 0.00749412 0.209259)
(12.4041 -0.0055511 0.214595)
(12.3266 0.0448717 0.135125)
(12.3342 0.0118082 0.153518)
(12.409 0.033044 0.177707)
(12.3833 0.0135732 0.188109)
(12.4129 0.0728425 0.143423)
(12.7666 0.156336 0.184954)
(12.6983 0.134326 0.17659)
(12.4205 0.0613083 0.14577)
(12.6343 0.128084 0.146993)
(12.6095 0.123605 0.142974)
(8.9325 0.264332 0.00242643)
(8.89945 0.2084 0.0255854)
(8.53971 0.0272352 -0.0704662)
(8.59099 0.0142981 -0.0670213)
(8.78004 0.208457 -0.0370652)
(8.97709 0.205789 -0.0150135)
(8.98447 0.24578 -0.0234156)
(8.75218 0.0691636 -0.0198947)
(8.82851 0.109359 -0.00304949)
(2.20356 -0.0946051 -0.188259)
(2.09882 -0.0303816 -0.129545)
(2.3782 -0.245601 -0.174441)
(2.51657 -0.246708 -0.225604)
(2.20181 -0.188339 -0.128636)
(2.01643 -0.0490653 -0.180857)
(2.16262 -0.123543 -0.307899)
(2.36087 -0.272624 -0.276835)
(2.13578 -0.0871796 -0.227835)
(2.3869 -0.204945 -0.354182)
(2.67584 -0.289759 -0.330616)
(2.46899 -0.226737 -0.275466)
(2.66356 -0.303248 -0.289704)
(1.37502 0.221413 0.307876)
(0.075196 -0.0505763 0.298949)
(-0.439643 -0.216859 -0.661432)
(-0.0854383 -0.0690846 -0.508706)
(-0.355266 -0.0960442 -0.482488)
(-0.316185 -0.122369 -0.0857596)
(-0.0488963 -0.151273 0.167636)
(-0.88538 -0.0631734 -0.567384)
(-1.0254 0.0414338 -0.226482)
(-1.18481 0.0167292 -0.116441)
(-1.06561 0.00352918 -0.284645)
(12.5752 0.156493 0.155076)
(12.6811 0.1964 0.166865)
(12.69 0.206176 0.155945)
(12.4105 0.246597 0.0716405)
(12.3391 0.238008 0.055149)
(12.3944 0.172664 0.0884765)
(12.4086 0.217919 0.0776573)
(12.3414 0.220384 0.0585356)
(12.2664 0.212772 0.0576162)
(12.5555 0.13891 0.14532)
(12.5994 0.157929 0.130911)
(12.1332 0.0948437 0.0460063)
(12.1154 0.0920884 0.0746742)
(12.1556 0.154259 0.0171439)
(12.3083 0.161448 0.0857422)
(12.0858 0.0893975 0.0571673)
(12.0748 0.0879936 0.0327166)
(-1.45585 -0.0967527 -0.664468)
(-1.08489 -0.655374 -0.364956)
(-1.21909 -0.248762 -0.527961)
(-1.26587 -1.21228 -0.06641)
(-2.54253 -0.046604 -0.0188743)
(-2.20935 -0.142507 -0.0448387)
(-2.44614 0.153014 -0.317626)
(-1.12687 -0.991926 0.0835667)
(-1.73362 -0.305215 -0.217052)
(-1.61041 -0.765902 -0.0751048)
(-1.79792 -0.743623 -0.00520126)
(10.6772 0.41223 -0.0129715)
(10.7946 0.419105 -0.0246848)
(10.5466 0.268624 -0.0158525)
(10.123 0.0834517 -0.0438272)
(10.3939 0.306357 -0.0166612)
(9.75709 0.168375 -0.161257)
(9.73534 0.154584 -0.161737)
(10.0505 0.0802058 -0.0399312)
(10.434 0.239456 0.0434171)
(9.91128 0.0114772 -0.0343307)
(10.4141 0.245269 0.0343146)
(11.8812 0.466544 0.184306)
(11.8876 0.445801 0.147977)
(11.8771 0.487436 0.18836)
(11.8956 0.441433 0.139362)
(11.7108 0.432757 0.0877316)
(11.761 0.45919 0.131344)
(11.489 0.540169 0.0576123)
(11.5692 0.540158 0.086645)
(11.7172 0.526742 0.124006)
(11.6047 0.517086 0.084323)
(11.4324 0.505488 0.00515603)
(11.4901 0.524323 0.028207)
(11.6035 0.424284 0.0609182)
(11.6653 0.441182 0.079387)
(11.5614 0.458306 0.0557514)
(2.84501 0.152997 -0.00844364)
(1.46569 0.0542352 -0.328447)
(1.34218 0.144646 -0.499702)
(0.53075 -0.0219563 -0.640536)
(0.458211 0.0955572 -0.576828)
(12.3219 -0.0360842 0.668252)
(12.4184 -0.0581998 0.662086)
(12.5466 -0.0717268 0.714119)
(12.4778 -0.0650884 0.709587)
(12.7963 -0.113029 0.706274)
(12.773 -0.12356 0.723756)
(12.5922 -0.0743995 0.687869)
(7.91998 2.55574 0.064156)
(7.47176 2.72299 -0.452503)
(8.85387 2.32626 -0.214289)
(8.71038 2.60253 -0.366892)
(7.95764 3.01716 -0.00645432)
(7.41982 3.05498 -0.54243)
(8.06286 2.29405 0.0834549)
(7.55201 2.40079 -0.541711)
(8.1729 3.0734 -1.19614)
(7.32063 3.11775 -1.26153)
(8.26156 2.18057 -0.0180972)
(7.93539 2.18833 -0.607572)
(8.25524 2.74208 -1.10879)
(7.72463 2.7005 -0.932367)
(8.92891 2.23667 -0.220189)
(8.42117 2.49482 -1.0464)
(7.86552 2.45119 -0.873406)
(8.93923 2.28934 -0.419112)
(9.61357 2.11444 -0.265273)
(9.76768 1.95427 -0.342204)
(9.57163 2.00534 -0.567185)
(9.49824 2.09906 -0.655717)
(9.51234 1.81347 -0.561216)
(9.43214 2.12612 -0.64917)
(9.56241 1.94991 -0.13985)
(9.49366 2.12363 -0.188459)
(9.41158 2.24408 -0.522306)
(8.98199 2.06552 -0.466807)
(9.29599 1.74265 -0.389002)
(9.28467 1.91454 -0.183197)
(9.00237 2.25577 -0.137298)
(10.1888 3.25037 -0.88537)
(10.5409 2.81107 -0.81633)
(10.9678 2.13712 -0.2899)
(10.8825 2.02973 -0.294796)
(10.3331 2.52616 -0.801136)
(10.5586 2.5188 -0.718443)
(10.6953 2.2486 -0.44039)
(10.6731 2.17182 -0.44991)
(10.4441 3.2478 -0.731483)
(10.7774 2.97461 -0.593095)
(9.94409 2.87906 -0.822477)
(10.0199 2.97476 -0.804215)
(10.7449 2.66306 -0.218967)
(10.6568 2.46241 -0.198141)
(10.9616 2.39588 -0.277524)
(10.3951 2.20691 -0.521204)
(10.0845 2.66935 -0.466446)
(10.1566 2.79923 -0.493903)
(10.4665 2.76258 -0.250432)
(10.4549 2.62157 -0.278756)
(10.3854 2.89691 -0.413749)
(10.3033 2.55554 -0.347105)
(13.1894 -0.0677654 0.37412)
(12.9759 -0.0858077 0.34696)
(13.0506 -0.128022 0.36242)
(12.9766 -0.0823205 0.354805)
(13.058 -0.126511 0.368115)
(13.2349 -0.0568184 0.387898)
(13.0989 -0.0556694 0.376249)
(13.2729 -0.0990515 0.362198)
(13.0565 -0.0803547 0.351035)
(13.1984 -0.0556201 0.37788)
(13.1949 -0.137512 0.360976)
(13.0967 -0.0679389 0.367862)
(13.2619 -0.118236 0.358591)
(13.1153 -0.073031 0.361293)
(13.2761 -0.127149 0.357562)
(13.2374 -0.0743008 0.371041)
(4.25164 0.150704 -0.440124)
(-1.47648 -0.0621806 -0.408193)
(2.32418 2.22612 0.377039)
(2.61772 2.59069 0.329952)
(9.787 1.07136 -1.79229)
(9.95261 1.18132 -2.07419)
(3.97705 2.27969 -0.569098)
(4.07743 2.05568 -0.324328)
(10.4815 0.709774 -1.6504)
(10.611 0.701404 -1.82025)
(0.478349 0.502279 0.672818)
(5.83966 0.154204 -0.821997)
(4.00562 0.953078 -0.168261)
(4.87294 1.99706 -0.326411)
(9.72906 1.23113 -1.61204)
(10.5898 1.1145 -1.48127)
(12.6044 0.113942 0.310981)
(12.658 0.160073 0.299827)
(12.5436 0.114812 0.247327)
(12.4996 0.116307 0.208798)
(12.4647 0.124386 0.219763)
(12.4777 0.1149 0.269432)
(12.5998 0.122243 0.262602)
(12.6654 0.133148 0.300301)
(12.5896 0.163469 0.309085)
(12.5468 0.102173 0.313471)
(12.4064 0.132508 0.210313)
(12.3864 0.0986291 0.15937)
(12.4419 0.120111 0.229063)
(12.4725 0.11806 0.270733)
(12.4004 0.0993909 0.151637)
(12.4688 0.105593 0.16484)
(12.5645 0.107332 0.198689)
(12.5104 0.117515 0.212583)
(9.72261 1.7689 -0.0797606)
(9.4209 1.69049 0.66966)
(9.33235 2.06386 0.838433)
(9.69922 1.93335 0.179129)
(9.5939 2.08553 0.0549882)
(9.21074 2.54293 0.304787)
(8.69551 2.73174 0.274065)
(9.34709 1.73836 -0.0736127)
(9.53532 2.09047 0.600664)
(9.00333 1.94415 0.64252)
(8.85471 2.2142 0.682568)
(8.79146 2.69135 0.395083)
(9.29467 2.42982 0.553923)
(9.72 1.79827 0.376238)
(9.6644 1.6272 0.367926)
(9.61221 1.66628 -0.0225403)
(10.5683 0.666726 -0.237702)
(10.6436 0.667736 -0.188605)
(10.6021 0.610824 -0.227983)
(10.6048 0.780657 -0.260823)
(10.717 0.846621 -0.164259)
(10.5456 0.558212 -0.248174)
(10.4795 0.642338 -0.318162)
(10.5178 0.733004 -0.344528)
(10.5786 0.749554 -0.334511)
(10.516 0.735219 -0.380892)
(10.571 0.745207 -0.320782)
(10.6448 0.750676 -0.357629)
(10.5918 0.74028 -0.402477)
(10.6975 0.769143 -0.304395)
(10.6368 0.738848 -0.29794)
(10.4865 0.605373 -0.285726)
(10.4529 0.635314 -0.344224)
(11.7205 -0.0549022 0.803283)
(11.7268 -0.0284537 0.77473)
(11.8427 0.120519 0.669233)
(11.8446 0.154048 0.684779)
(11.8372 0.161165 0.689221)
(11.8367 0.116532 0.665783)
(11.7399 -0.0201031 0.871183)
(11.7159 -0.0106047 0.899429)
(11.8389 0.286955 0.817863)
(11.8316 0.378817 0.971247)
(11.7076 -0.0162246 0.728024)
(11.8482 0.119532 0.673891)
(11.8523 0.285768 0.824152)
(11.853 0.322454 0.907147)
(11.7155 0.0029601 0.696312)
(11.8912 0.28428 0.890064)
(11.7846 -4.97433e-05 0.834302)
(10.0315 -1.44225 0.523405)
(10.3811 -1.40639 0.534232)
(10.5048 -1.39505 0.655059)
(9.85381 -1.50191 0.595111)
(10.4074 -1.36179 0.40833)
(9.77033 -1.52825 0.504453)
(9.84965 -1.37936 0.122795)
(9.59424 -1.50194 0.125026)
(10.4422 -1.33099 0.458466)
(10.552 -1.39381 0.5466)
(10.5476 -1.38543 0.665571)
(9.89969 -1.59237 0.545848)
(9.35195 -1.57044 0.0153676)
(9.70092 -1.45609 0.0644728)
(9.60292 -1.64397 -0.0198732)
(10.0227 -1.32482 0.176313)
(9.33406 -1.71618 0.03467)
(9.37643 -1.72472 0.00512993)
(12.2663 -0.538682 0.443032)
(12.4711 -0.458204 0.478317)
(12.4715 -0.421969 0.460984)
(12.4854 -0.393655 0.321987)
(12.2452 -0.464556 0.308388)
(12.5224 -0.340071 0.419101)
(12.2531 -0.533406 0.448024)
(12.4131 -0.450366 0.461185)
(12.404 -0.43206 0.446307)
(12.5092 -0.324864 0.418602)
(12.4166 -0.405683 0.318313)
(12.3475 -0.447654 0.410639)
(12.4445 -0.366011 0.365539)
(12.1993 -0.546095 0.374968)
(11.8176 -0.836542 0.626976)
(11.8883 -0.774964 0.647314)
(11.7971 -0.734831 0.96253)
(12.1761 -0.582101 0.960833)
(11.815 -0.734847 0.982378)
(11.7807 -0.780062 0.969071)
(11.5996 -0.894721 0.738901)
(11.9064 -0.781884 0.616018)
(12.0012 -0.706938 0.665457)
(11.7119 -0.898433 0.886451)
(11.7312 -0.869085 0.867909)
(11.6463 -0.886791 0.763562)
(11.9085 -0.789524 0.652448)
(12.2224 -0.593809 0.743075)
(12.2181 -0.606627 0.722626)
(11.7188 -0.849482 0.714166)
(12.1822 -0.637586 0.79088)
(11.8583 -0.790933 0.814716)
(10.6066 3.36969 -0.735014)
(10.9818 3.29421 -0.639863)
(10.9758 3.04572 -0.594625)
(10.4113 3.29497 -0.508731)
(10.7234 3.49688 -0.512702)
(11.3313 3.00054 -0.300931)
(11.1812 2.6369 -0.27266)
(11.0298 3.41843 0.0316248)
(11.2421 3.24042 0.0685149)
(10.5807 3.3547 -0.124444)
(11.089 2.56384 -0.217167)
(11.0821 3.58894 -0.144481)
(11.5531 -0.151598 1.01666)
(12.187 -0.110308 1.03691)
(11.3131 -0.343915 0.966109)
(12.1553 -0.0971829 1.02172)
(11.4095 -0.100901 1.03314)
(11.804 -0.288167 0.891959)
(11.379 -0.258036 0.961342)
(11.4366 -0.311465 0.917275)
(11.6698 -0.323608 0.925164)
(12.4503 -0.0828538 0.889806)
(12.5855 -0.0913225 0.814107)
(12.4303 -0.120663 0.862699)
(12.2057 -0.225018 0.785334)
(12.3311 -0.220131 0.762934)
(12.5641 -0.103328 0.811471)
(12.3217 -0.208882 0.758446)
(12.4612 0.0595211 1.13985)
(12.223 0.203718 1.08004)
(12.3898 0.107821 1.10779)
(12.2262 0.208813 1.03896)
(11.8335 0.210636 1.21823)
(11.7122 -0.00535843 1.31128)
(11.361 -0.0682568 1.29919)
(11.8305 0.241401 1.31172)
(11.8538 0.21769 1.19555)
(12.2012 0.229104 1.06069)
(12.3304 0.140253 1.09887)
(12.2559 -0.045441 1.1958)
(11.3984 -0.117343 1.26235)
(12.2073 0.00639122 1.14401)
(12.0522 -0.144626 1.19347)
(12.0385 -0.118958 1.21174)
(12.4559 0.465933 0.590297)
(12.5217 0.480834 0.611892)
(12.5726 0.41221 0.563608)
(12.3884 0.520532 0.443485)
(12.1917 0.697102 0.564285)
(12.409 0.286837 0.530786)
(12.3368 0.297438 0.521537)
(12.596 0.569442 0.554879)
(12.4834 0.643462 0.623215)
(12.4277 0.626151 0.462951)
(12.2771 0.710348 0.561702)
(12.3996 0.585208 0.627658)
(12.3381 0.545405 0.599538)
(12.219 0.508535 0.625165)
(12.3054 0.427611 0.524391)
(12.4835 0.300846 0.534493)
(12.4458 0.357794 0.501582)
(12.3675 0.353458 0.522001)
(12.4881 0.519637 0.503567)
(11.1987 -0.312358 -0.588803)
(11.1562 -0.318683 -0.559931)
(11.5532 -0.316834 -0.482998)
(10.7964 -0.352376 -0.595169)
(11.2503 -0.302916 -0.58581)
(10.8835 -0.36253 -0.548557)
(11.1495 -0.389928 -0.593823)
(11.6638 -0.306533 -0.549165)
(11.1374 -0.373496 -0.47367)
(11.8975 -0.336653 -0.418181)
(10.8931 -0.39404 -0.552079)
(11.2749 -0.432851 -0.51199)
(11.3476 -0.428531 -0.410741)
(11.3261 -0.450795 -0.441994)
(9.28558 -0.333262 -0.350216)
(9.22817 -0.315063 -0.351097)
(9.93592 -0.385259 -0.197897)
(9.52703 -0.363193 -0.281841)
(9.60786 -0.353012 -0.270353)
(9.70024 -0.342072 -0.275023)
(10.3873 -0.330976 -0.113084)
(10.0731 -0.363771 -0.330982)
(9.88546 -0.356596 -0.348229)
(10.7789 -0.338878 -0.14798)
(10.6407 -0.322287 -0.148794)
(9.46701 -0.383219 -0.371937)
(10.5144 -0.333441 -0.150428)
(10.2846 -0.333828 -0.262582)
(10.2657 -0.334376 -0.250737)
(10.7661 -0.332085 -0.154346)
(10.6849 -0.319381 -0.158925)
(10.3574 -0.287171 -0.214743)
(11.7968 1.24809 -0.119334)
(11.4212 1.34977 -0.537973)
(11.114 1.48064 -0.797603)
(12.4276 0.579546 -0.204201)
(12.3398 0.800892 -0.176373)
(11.8151 1.06796 -0.446166)
(12.0088 0.993497 -0.131747)
(12.5434 0.534119 -0.196114)
(12.3761 0.807237 -0.146412)
(11.443 1.05049 -0.755696)
(11.9574 0.78335 -0.557417)
(4.78635 -1.0585 -0.978228)
(4.90361 -1.11601 -0.941099)
(4.83869 -0.943068 -0.95222)
(4.67472 -0.862623 -1.03397)
(3.89426 -0.371412 -1.1616)
(3.60631 -0.153194 -0.996666)
(3.46914 -0.0289161 -1.19352)
(3.33962 0.02405 -1.06962)
(5.28291 -1.13778 -1.0761)
(5.60046 -1.18142 -1.06693)
(4.91571 -0.97746 -0.934533)
(4.49607 -0.540068 -1.05884)
(4.42647 -0.416478 -1.11974)
(4.15221 -0.475839 -0.971703)
(4.06646 -0.270831 -1.08644)
(4.0913 -0.361486 -1.0316)
(3.58943 -0.0721023 -1.18313)
(5.55533 -1.10886 -1.02358)
(5.36769 -0.920143 -1.12614)
(5.63835 -1.09785 -1.04247)
(5.04289 -0.876264 -1.2035)
(13.3958 -0.156655 0.459387)
(13.4047 -0.164396 0.427686)
(13.399 -0.0941633 0.479195)
(13.4254 -0.126 0.441653)
(13.3997 -0.104945 0.486668)
(13.3866 -0.163373 0.449245)
(13.3868 -0.160089 0.464122)
(13.3838 -0.0889573 0.445746)
(13.3515 -0.0745815 0.474352)
(13.2705 -0.0835453 0.500471)
(13.2791 -0.102583 0.473095)
(13.2265 -0.0834352 0.502293)
(13.3841 -0.0968421 0.439344)
(13.2711 -0.0762371 0.497453)
(13.1901 -0.069905 0.477179)
(13.2912 -0.0855023 0.451943)
(13.195 -0.0587546 0.477751)
(12.065 0.476893 1.09825)
(11.9061 0.487485 1.12283)
(11.6205 0.361822 1.30045)
(10.9565 0.391898 1.31856)
(12.0398 0.460375 1.16747)
(11.9182 0.442555 1.23333)
(10.9 0.871764 0.779738)
(10.8953 0.721429 0.954177)
(11.7351 0.367717 1.29024)
(10.9533 0.416107 1.28151)
(11.0807 0.666079 1.29396)
(7.84172 0.315928 0.459877)
(7.90855 0.451889 0.35142)
(7.64782 0.48354 0.39315)
(6.16235 0.266259 0.302156)
(7.2518 0.260924 0.48102)
(5.4401 0.240187 0.300192)
(4.9565 0.192798 0.257369)
(5.94619 0.215917 0.504571)
(7.26246 0.365863 0.506208)
(7.48377 0.362521 0.4067)
(5.73653 0.270855 0.346568)
(6.11308 0.305325 0.336268)
(5.95457 0.318193 0.457643)
(12.4558 -0.328927 -0.235187)
(12.4222 -0.30592 -0.227539)
(12.5403 -0.32854 -0.13344)
(12.5609 -0.332634 -0.137934)
(12.3667 -0.380515 -0.204814)
(12.3829 -0.366688 -0.193515)
(12.3328 -0.352268 -0.273163)
(12.3159 -0.347001 -0.275343)
(12.508 -0.301354 -0.155768)
(12.5746 -0.322366 -0.168368)
(12.3767 -0.30102 -0.237616)
(12.3929 -0.290664 -0.227333)
(12.6112 -0.325678 -0.132991)
(12.341 -0.359527 -0.23444)
(12.5692 -0.309756 -0.116864)
(12.5405 -0.303652 -0.13013)
(12.3859 -0.300586 -0.215329)
(12.4228 -0.296802 -0.194331)
(12.5326 -0.302327 -0.127099)
(12.5344 -0.307588 -0.125817)
(12.4895 -0.310606 -0.161056)
(12.4136 -0.325259 -0.196639)
(11.9841 -0.507345 -0.44659)
(12.5008 -0.437582 -0.377972)
(11.7436 -0.403599 -0.539649)
(12.548 -0.33967 -0.422392)
(12.5801 -0.440675 -0.37032)
(11.5181 -0.504651 -0.396649)
(11.6792 -0.352549 -0.551316)
(12.5656 -0.32762 -0.41847)
(12.1179 -0.348787 -0.508371)
(11.4951 -0.498025 -0.36948)
(12.0588 -0.43963 -0.315356)
(12.1066 -0.465984 -0.361459)
(11.3144 -0.415861 -0.582437)
(12.5215 -0.336953 -0.425575)
(12.1031 -0.336587 -0.509248)
(11.1793 -0.43242 -0.61893)
(11.7 -0.368034 -0.613699)
(12.2892 -0.405251 -0.406729)
(12.5642 -0.416282 -0.376788)
(12.536 -0.403844 -0.400882)
(12.6906 0.64659 0.280599)
(12.5075 0.699073 0.288373)
(12.4182 0.72066 0.385019)
(12.4709 0.686128 0.470429)
(12.6667 0.645277 0.263885)
(12.5358 0.683703 0.284153)
(12.4253 0.699207 0.478342)
(12.3358 0.732268 0.409931)
(12.7303 0.623181 0.385985)
(12.7195 0.600902 0.449721)
(12.7597 0.600016 0.413624)
(12.6758 0.636128 0.296638)
(12.643 0.639491 0.289592)
(12.5242 0.687294 0.291525)
(12.771 0.595496 0.419582)
(12.7288 0.599429 0.469695)
(12.6782 0.609113 0.39571)
(12.5027 0.685941 0.28605)
(12.3211 0.71224 0.410538)
(12.3905 0.701632 0.50052)
(12.3823 0.692539 0.406841)
(12.337 0.704508 0.461339)
(11.1442 0.452231 0.91705)
(11.181 0.540586 0.936557)
(12.3718 0.438703 0.921089)
(12.2873 0.475749 0.891909)
(12.1743 0.437775 0.993076)
(12.0244 0.521192 1.00974)
(12.2197 0.447754 0.924096)
(12.1548 0.436898 0.993274)
(11.9012 0.42464 0.945917)
(11.2801 0.439148 0.896492)
(11.1675 0.38509 0.875325)
(11.2993 0.424833 0.871117)
(12.0856 0.559348 0.912337)
(12.1957 0.515538 0.821733)
(12.3129 0.46096 0.863413)
(11.4466 0.451957 0.881604)
(11.7216 0.508247 0.819593)
(12.4931 0.496544 0.868678)
(12.4964 0.579438 0.845672)
(12.7679 0.31865 0.810726)
(12.7315 0.40674 0.769623)
(12.7914 0.351588 0.785965)
(12.9054 0.327815 0.784238)
(12.9528 0.304113 0.753355)
(12.8227 0.493265 0.700516)
(12.7891 0.477564 0.715373)
(12.7268 0.571252 0.697761)
(12.7958 0.556245 0.694143)
(12.9343 0.367932 0.744114)
(12.7757 0.60094 0.696376)
(12.7038 0.600411 0.694583)
(10.9315 0.834987 -0.382662)
(10.8874 0.761721 -0.23334)
(10.8318 0.710876 -0.231872)
(10.8628 0.776454 -0.416476)
(10.7961 0.767838 -0.421621)
(10.9319 0.620877 -0.280525)
(10.8732 0.558535 -0.252825)
(10.9647 0.686204 -0.293773)
(10.9155 0.623205 -0.300107)
(10.8442 0.571327 -0.270917)
(13.1496 -0.172725 0.635518)
(13.1453 -0.19151 0.632593)
(13.0854 -0.136381 0.681641)
(13.0862 -0.139164 0.648566)
(13.1129 -0.228298 0.653405)
(13.0875 -0.2365 0.662282)
(13.1159 -0.153149 0.654596)
(13.0965 -0.122916 0.666016)
(13.0971 -0.224601 0.666844)
(13.078 -0.114725 0.689343)
(13.0815 -0.144437 0.710472)
(13.0772 -0.123541 0.715184)
(13.0818 -0.100672 0.694075)
(13.0559 -0.189819 0.702923)
(13.0937 -0.0999372 0.695326)
(13.0818 -0.119115 0.711273)
(13.0465 -0.186618 0.699885)
(8.49389 0.0199821 0.163573)
(8.40608 0.00559637 0.204383)
(8.25329 0.073434 0.230867)
(7.65759 -0.140321 0.0258865)
(7.63983 -0.0961705 -0.044381)
(8.15124 0.0831581 0.134209)
(8.37356 -0.379467 -0.355139)
(8.39952 -0.323094 -0.325523)
(8.2192 -0.284119 -0.272958)
(8.04349 -0.282969 -0.24305)
(8.32752 0.0939737 0.258701)
(8.40527 0.0642826 0.189838)
(8.48487 -0.114688 0.0994934)
(8.50348 -0.035262 0.109247)
(8.00034 -0.242116 -0.2232)
(8.00438 -0.168174 -0.196772)
(7.68846 -0.0806199 -0.079984)
(8.29144 0.0653388 0.122216)
(8.45243 -0.13978 0.0644831)
(8.2998 -0.0434226 0.020681)
(11.8379 -0.0142731 0.54768)
(11.6926 -0.077341 0.538639)
(11.6869 -0.0166688 0.520122)
(11.8004 0.00974009 0.540838)
(11.6755 -0.120818 0.55784)
(11.3942 -0.0954731 0.546083)
(11.6076 -0.18722 0.534174)
(11.8523 -0.0304589 0.492536)
(11.8447 -0.00826436 0.524295)
(11.7906 -0.0705959 0.520105)
(11.4209 -0.209678 0.475787)
(11.3645 -0.124325 0.545058)
(11.8155 0.0157792 0.52655)
(11.5738 -0.0911881 0.520017)
(11.5806 -0.127992 0.500619)
(11.3269 -0.178676 0.501203)
(2.99675 -0.162518 0.734413)
(3.02606 -0.373179 0.87394)
(2.0918 -0.352616 1.13958)
(2.0697 -0.0951609 1.11724)
(5.87587 -0.652702 0.605654)
(4.41359 -0.527264 0.62351)
(7.60926 -0.210325 0.791942)
(5.67516 0.153118 0.894681)
(3.37499 0.353824 1.32525)
(4.69172 -0.115583 1.09137)
(7.54084 -0.231618 0.677845)
(5.80116 -0.178012 0.862016)
(4.85298 0.292306 0.842916)
(12.4114 -0.0444275 1.10763)
(12.3668 0.045805 1.17538)
(12.4778 -0.0722343 1.07856)
(12.6067 -0.0904452 0.98662)
(12.7749 -0.0919071 0.929176)
(12.6734 -0.0693111 1.02042)
(12.3548 0.0604309 1.18903)
(12.5101 0.164128 1.03987)
(12.645 0.0151119 0.989315)
(12.5933 -0.0680757 0.961141)
(12.8634 -0.0231552 0.890863)
(12.539 0.220754 1.00125)
(11.7869 0.402764 -0.0960053)
(11.7386 0.300677 -0.129728)
(11.7896 0.265277 -0.142397)
(11.8817 0.401818 -0.074557)
(11.8202 0.344537 -0.0796395)
(11.8591 0.31856 -0.0988118)
(12.0151 0.38393 -0.0950135)
(12.1091 0.394617 -0.112869)
(12.0106 0.292411 -0.11613)
(11.9648 0.279311 -0.114933)
(12.0253 0.618505 -0.196674)
(12.1123 0.613267 -0.196453)
(11.9438 0.565107 -0.225826)
(12.0073 0.558333 -0.20843)
(11.8497 0.552934 -0.232804)
(11.8969 0.472558 -0.153812)
(11.9182 0.374913 -0.0876418)
(11.9583 0.565435 -0.191138)
(11.9853 0.448549 -0.130647)
(11.6674 -0.402943 0.355128)
(11.6042 -0.359382 0.417314)
(11.9111 -0.306724 0.292526)
(11.8876 -0.246602 0.340819)
(11.9293 -0.237822 0.364552)
(12.315 -0.307956 0.481059)
(12.12 -0.322395 0.47205)
(11.7641 -0.337569 0.384779)
(12.0887 -0.365779 0.33097)
(12.8073 -0.245478 0.628946)
(12.8066 -0.262174 0.615729)
(11.9324 -0.334508 0.463718)
(12.7861 -0.31102 0.478347)
(12.5603 -0.319871 0.447489)
(12.7375 -0.261652 0.568545)
(12.927 -0.250173 0.613772)
(12.9546 -0.236324 0.58022)
(12.6059 -0.322098 0.519506)
(12.881 -0.24205 0.537724)
(1.69201 0.498269 -1.18616)
(1.86013 0.402817 -1.39192)
(2.64986 0.1496 -1.32394)
(2.34131 0.200093 -1.20102)
(2.10527 0.24764 -1.18163)
(2.24047 0.197914 -1.26316)
(2.60361 -0.0755473 -1.13544)
(2.88098 -0.189981 -1.19688)
(3.10757 -0.223829 -1.23744)
(3.00567 -0.203303 -1.13368)
(3.55813 -0.449457 -1.09213)
(3.6215 -0.512369 -1.15726)
(3.25981 -0.0507056 -1.22111)
(3.52443 -0.338524 -1.27335)
(3.32233 -0.124512 -1.13867)
(2.72476 0.0225368 -1.25277)
(10.9048 0.51757 -0.315032)
(10.8224 0.484818 -0.248602)
(10.8725 0.496851 -0.329488)
(10.968 0.555455 -0.393278)
(10.894 0.546998 -0.666035)
(10.8193 0.537257 -0.658912)
(10.8332 0.490484 -0.304295)
(10.9292 0.565917 -0.533512)
(10.8647 0.57233 -0.653072)
(10.8173 0.537281 -0.661995)
(10.7875 0.410618 -0.375844)
(10.879 0.473268 -0.486731)
(10.8722 0.560634 -0.485072)
(10.7523 0.422874 -0.37688)
(10.7131 0.417725 -0.384651)
(10.7814 0.514662 -0.50614)
(8.1826 0.274252 -1.02942)