/*--------------------------------*- C++ -*----------------------------------*\
  =========                 |
  \\      /  F ield         | OpenFOAM: The Open Source CFD Toolbox
   \\    /   O peration     | Website:  https://openfoam.org
    \\  /    A nd           | Version:  10
     \\/     M anipulation  |
\*---------------------------------------------------------------------------*/
FoamFile
{
    format      ascii;
    class       volScalarField;
    location    "8";
    object      C;
}
// * * * * * * * * * * * * * * * * * * * * * * * * * * * * * * * * * * * * * //

dimensions      [1 3 0 0 0 0 0];

internalField   nonuniform List<scalar> 
75457
(
0.494803
0.494306
0.496375
0.497785
0.498099
0.498011
0.49626
0.496029
0.499512
0.499507
0.49952
0.498731
0.498809
0.499354
0.432994
0.442485
0.474073
0.463125
0.450424
0.469836
0.46318
0.464013
0.447346
0.448196
0.466904
0.434719
0.428699
0.281807
0.257036
0.264258
0.255153
0.227946
0.222551
0.296941
0.280735
0.29762
0.304814
0.236532
0.232903
0.269934
0.284232
0.261212
0.284156
0.489647
0.485329
0.494143
0.493918
0.489796
0.478818
0.480354
0.482094
0.481439
0.475906
0.478887
0.483994
0.486016
0.479323
0.481116
0.480455
0.477127
0.478577
0.484343
0.5
0.5
0.5
0.5
0.5
0.5
0.5
0.5
0.5
0.5
0.5
0.5
0.5
0.5
0.5
0.0662202
0.0272675
0.00216187
0.078843
0.022163
0.0273068
0.00230508
0.00171094
0.00126131
0.00504354
0.00737195
0.0375812
0.0625631
0.000115302
0.00146939
0.0381739
0.000745263
0.499943
0.49996
0.499959
0.499968
0.499938
0.49995
0.499968
0.49996
0.5
0.5
0.5
0.5
0.5
0.5
0.5
0.5
0.5
0.5
0.5
0.5
0.5
0.5
0.5
0.5
0.5
0.5
0.5
0.5
0.5
0.5
0.5
0.5
0.5
0.5
0.5
0.5
0.5
0.5
0.5
0.5
0.5
0.5
0.5
0.5
0.5
0.5
0.5
0.5
0.5
0.5
0.5
0.5
0.5
0.5
0.5
0.5
0.5
0.5
0.5
0.5
0.5
0.5
0.5
0.5
0.5
0.5
0.5
0.5
0.5
0.5
0.5
0.5
0.5
0.5
0.5
0.5
0.5
0.5
0.5
0.5
0.5
0.5
0.5
0.5
0.5
0.5
0.5
0.5
0.5
0.5
0.5
0.5
0.5
0.5
0.5
0.5
0.471923
0.467296
0.465005
0.454283
0.446614
0.451567
0.5
0.5
0.5
0.5
0.5
0.5
0.5
0.5
0.5
0.5
0.5
0.499837
0.499895
0.499893
0.499812
0.49964
0.499881
0.499822
0.499629
0.499705
0.499879
0.499601
0.499787
0.499865
0.499807
0.5
0.5
0.5
0.5
0.5
0.5
0.5
0.5
0.5
0.5
0.5
0.5
0.5
0.5
0.496174
0.494587
0.495975
0.497348
0.497487
0.49571
0.497802
0.495967
0.494266
0.496375
0.494927
0.497756
0.498386
0.494399
0.495645
0.498035
0.495828
0.487937
0.488417
0.488867
0.488751
0.491352
0.491681
0.491246
0.494585
0.49478
0.494671
0.488277
0.491296
0.497702
0.497905
0.495919
0.49736
0.498229
0.498393
0.498053
0.498511
0.496672
0.495802
0.498017
0.495739
0.498256
0.5
0.5
0.5
0.5
0.5
0.5
0.5
0.5
0.5
0.5
0.5
0.5
0.5
0.5
0.5
0.083221
0.0910308
0.0714554
0.0758731
0.0765572
0.102384
0.0929683
0.0834467
0.0939996
0.000176765
0.000182292
0.00043743
0.000355393
0.000303818
0.000249217
0.00042982
0.000561177
0.000196106
0.00038474
0.000501789
0.000238106
0.000329312
0.0074927
0.00099151
1.41327e-05
0.00318625
0.00419766
0.00321048
0.00463675
2.03272e-06
5.9502e-05
0.000369378
0.00012096
0.499446
0.499517
0.499616
0.499585
0.499501
0.499285
0.49939
0.49964
0.499545
0.49957
0.49969
0.499608
0.499461
0.499407
0.499703
0.499411
0.499519
0.0819073
0.105909
0.0828379
0.145939
0.0623236
0.0572213
0.0632928
0.11153
0.0747812
0.119415
0.0974691
0.374364
0.390251
0.401821
0.382215
0.373089
0.338265
0.325427
0.370715
0.39075
0.357202
0.38267
0.177721
0.191836
0.184084
0.20167
0.176848
0.166388
0.18069
0.171451
0.186101
0.198396
0.166342
0.161569
0.183669
0.197193
0.183806
0.0281628
0.0170888
0.0170377
0.0342894
0.0094073
0.496571
0.497313
0.496448
0.496833
0.497193
0.496855
0.497705
0.5
0.5
0.5
0.5
0.5
0.5
0.5
0.5
0.5
0.5
0.5
0.5
0.5
0.5
0.5
0.5
0.5
0.5
0.5
0.5
0.5
0.5
0.5
0.5
0.5
0.5
0.5
0.5
0.5
0.5
0.5
0.5
0.5
0.5
0.5
0.5
0.5
0.5
0.5
0.5
0.5
0.5
0.5
0.5
0.5
0.5
0.5
0.5
0.5
0.5
0.5
0.5
0.5
0.499839
0.497892
0.498229
0.497982
0.498342
0.499872
0.498863
0.49956
0.498282
0.499832
0.498919
0.498752
0.499484
0.498727
0.499472
0.499821
0.499595
0.498881
0.49899
0.498997
0.499797
0.499765
0.499154
0.49918
0.499921
0.499925
0.498535
0.499659
0.499572
0.499209
0.499801
0.499916
0.5
0.5
0.5
0.5
0.5
0.5
0.5
0.5
0.5
0.5
0.5
0.5
0.5
0.5
0.5
0.5
0.5
0.5
0.5
0.5
0.5
0.5
0.5
0.5
0.5
0.5
0.5
0.5
0.5
0.5
0.5
0.5
0.5
0.5
0.5
0.5
0.5
0.5
0.5
0.5
0.5
0.5
0.5
0.5
0.5
0.5
0.5
0.5
0.5
0.5
0.5
0.5
0.5
0.5
0.5
0.5
0.5
0.5
0.5
0.5
0.5
0.5
0.5
0.5
0.5
0.5
0.5
0.5
0.378116
0.392795
0.400732
0.38126
0.394857
0.3742
0.375927
0.362144
0.401584
0.408178
0.405159
0.384939
0.356509
0.38238
0.377336
0.392481
0.358907
0.365543
0.460386
0.471145
0.468004
0.461017
0.45353
0.466858
0.456404
0.462717
0.456741
0.461151
0.455487
0.449015
0.452943
0.449888
0.460065
0.461084
0.454849
0.467838
0.457834
0.456058
0.451622
0.464838
0.465682
0.455841
0.457697
0.454811
0.46497
0.471631
0.473062
0.459172
0.471656
0.46189
0.5
0.5
0.5
0.5
0.5
0.5
0.5
0.5
0.5
0.5
0.5
0.5
0.474052
0.485639
0.47281
0.48495
0.472861
0.479577
0.474558
0.475501
0.477946
0.489465
0.49161
0.490606
0.488282
0.488681
0.49162
0.488988
0.459992
0.447719
0.452768
0.44542
0.435674
0.434209
0.413642
0.426928
0.434063
0.442431
0.447905
0.453544
0.420974
0.441127
0.440983
0.443574
0.5
0.5
0.5
0.5
0.5
0.5
0.5
0.5
0.5
0.5
0.5
0.5
0.5
0.5
0.5
0.5
0.5
0.5
0.5
0.372165
0.361484
0.366388
0.34379
0.374954
0.335281
0.373144
0.410128
0.338916
0.407464
0.344638
0.377632
0.360738
0.372004
0.112178
0.101681
0.141947
0.13396
0.115065
0.151254
0.172968
0.148235
0.145146
0.216883
0.188411
0.13743
0.201471
0.170025
0.183034
0.203266
0.186386
0.189996
0.49918
0.49851
0.49835
0.499724
0.499665
0.498718
0.499294
0.499712
0.499655
0.498529
0.498891
0.108849
0.116086
0.109123
0.101955
0.0516531
0.0291758
0.0399058
0.0264253
0.145826
0.170828
0.112194
0.0869255
0.0829683
0.0535623
0.0631241
0.0594396
0.0433024
0.160085
0.140459
0.160441
0.13041
0.499864
0.499854
0.49998
0.499937
0.499979
0.499862
0.499866
0.499985
0.499996
0.499988
0.499972
0.499991
0.499984
0.499988
0.499996
0.499988
0.499997
0.454024
0.446556
0.442954
0.422719
0.456795
0.45195
0.417538
0.416468
0.448147
0.424985
0.42926
0.165144
0.15577
0.154789
0.0905259
0.14091
0.0599345
0.0491395
0.102059
0.150497
0.145444
0.0857127
0.0884485
0.100842
0.448991
0.442742
0.439721
0.447357
0.426897
0.421972
0.430054
0.422054
0.450009
0.455348
0.427253
0.437001
0.455877
0.416466
0.448171
0.435868
0.426926
0.434813
0.433596
0.439393
0.443697
0.419348
0.4714
0.484303
0.462951
0.486306
0.485818
0.444976
0.459809
0.486161
0.471376
0.437572
0.460186
0.466002
0.436864
0.483709
0.46958
0.426181
0.448606
0.469049
0.484471
0.482466
0.482721
0.476586
0.469502
0.470228
0.481115
0.476009
0.466227
0.46353
0.482034
0.478356
0.480645
0.479053
0.475837
0.47376
0.482261
0.478483
0.475097
0.470978
0.461427
0.463481
0.460771
0.460609
0.400988
0.405517
0.458468
0.456236
0.449518
0.443052
0.445783
0.446653
0.431648
0.402359
0.402245
0.410374
0.445763
0.446282
0.451306
0.409013
0.422177
0.493545
0.493422
0.49546
0.49576
0.496176
0.496221
0.497105
0.496236
0.496356
0.495559
0.495649
0.496785
0.494722
0.494343
0.5
0.5
0.5
0.5
0.5
0.5
0.5
0.5
0.5
0.5
0.499104
0.499056
0.499063
0.499235
0.498105
0.497622
0.499231
0.499455
0.497796
0.49901
0.498587
0.49868
0.499166
0.497112
0.499226
0.498713
0.496983
0.426194
0.431841
0.428454
0.403938
0.39382
0.414745
0.423718
0.418327
0.405374
0.402114
0.433206
0.426622
0.42774
0.423289
0.408811
0.394562
0.391393
0.417601
0.416396
0.408894
0.5
0.5
0.5
0.5
0.5
0.5
0.5
0.5
0.5
0.5
0.5
0.5
0.5
0.5
0.5
0.5
0.251154
0.248726
0.236032
0.234536
0.371548
0.319109
0.404018
0.3183
0.256597
0.297215
0.403788
0.322422
0.276288
0.482016
0.481012
0.484104
0.488582
0.490844
0.487387
0.481322
0.486265
0.488937
0.488897
0.493024
0.487133
0.5
0.5
0.5
0.5
0.5
0.5
0.5
0.5
0.5
0.5
0.5
0.5
0.5
0.5
0.5
0.5
0.5
0.5
0.5
0.484047
0.482957
0.489923
0.489775
0.489742
0.489988
0.487863
0.485734
0.49052
0.49511
0.495184
0.486331
0.495687
0.494035
0.494224
0.496473
0.49702
0.494079
0.49623
0.00547213
0.00825413
0.0179232
0.0107606
0.00780208
0.0109746
0.0088753
0.0168576
0.020546
0.0168784
0.0308603
0.0360793
0.0281238
0.0274414
0.029785
0.0161418
0.5
0.5
0.5
0.5
0.5
0.5
0.5
0.5
0.5
0.5
0.5
0.5
0.5
0.5
0.5
0.5
0.438346
0.363689
0.448121
0.372718
0.438516
0.326313
0.480183
0.449516
0.486378
0.486502
0.480353
0.448086
0.366228
0.305784
0.438675
0.480765
0.480409
0.480967
0.448502
0.348805
0.5
0.5
0.5
0.5
0.5
0.5
0.5
0.5
0.5
0.5
0.5
0.5
0.5
0.5
0.5
0.5
0.5
0.499999
0.499999
0.499999
0.499999
0.499999
0.499999
0.499989
0.499975
0.499979
0.499999
0.499974
0.499974
0.499912
0.49987
0.499961
0.499907
0.499923
0.499906
0.499953
0.499985
0.499925
0.499968
0.499955
0.499986
0.49996
0.499984
0.499986
0.499985
0.492967
0.49212
0.49213
0.493345
0.492747
0.49369
0.49016
0.491292
0.494282
0.49112
0.492207
0.4906
0.491647
0.495317
0.490566
0.494543
0.493209
0.49453
0.493469
0.498698
0.495258
0.496004
0.498346
0.498335
0.495132
0.495783
0.496893
0.496798
0.496317
0.498823
0.498343
0.497698
0.497931
0.496638
0.497069
0.498767
0.497357
0.496992
0.496036
0.498917
0.498381
0.49583
0.49695
0.498892
0.5
0.5
0.5
0.5
0.5
0.5
0.5
0.5
0.5
0.5
0.5
0.5
0.5
0.5
0.5
0.5
0.5
0.5
0.5
0.5
0.5
0.5
0.5
0.5
0.5
0.5
0.5
0.5
0.5
0.5
0.5
0.5
0.487406
0.489363
0.483099
0.482773
0.479941
0.48981
0.489567
0.487934
0.485725
0.486519
0.481976
0.48412
0.484452
0.485995
0.486738
0.486529
0.487793
0.488679
0.400087
0.383198
0.393839
0.373373
0.391391
0.426374
0.417169
0.4231
0.410633
0.388852
0.398892
0.408961
0.435258
0.424635
0.416094
0.408188
0.427588
0.416177
0.396502
0.394211
0.404969
0.401588
0.385578
0.406145
0.38363
0.372178
0.417346
0.39534
0.404521
0.387719
0.376105
0.371128
0.392042
0.417593
0.403455
0.0418795
0.0600113
0.0462206
0.102771
0.0712077
0.0746598
0.09812
0.0661831
0.0188321
0.499985
0.499982
0.499972
0.499928
0.499949
0.499969
0.499964
0.499969
0.499918
0.499898
0.499939
0.4999
0.4788
0.477263
0.476064
0.47824
0.476518
0.482339
0.480468
0.48189
0.479513
0.479121
0.480474
0.482617
0.478899
0.483747
0.483487
0.484711
0.5
0.5
0.5
0.5
0.5
0.5
0.5
0.5
0.5
0.5
0.499679
0.499591
0.49979
0.499763
0.49977
0.499707
0.499792
0.499785
0.499385
0.499728
0.499649
0.499635
0.499722
0.499691
0.499594
0.499516
0.499542
0.499758
0.494619
0.494924
0.49354
0.49558
0.496277
0.494233
0.495026
0.494036
0.495824
0.496983
0.49652
0.496613
0.496076
0.496699
0.495877
0.496322
0.49684
0.496289
0.5
0.5
0.5
0.5
0.5
0.5
0.5
0.5
0.5
0.5
0.5
0.5
0.5
0.5
0.5
0.5
0.5
0.5
0.5
0.5
0.5
0.5
0.5
0.5
0.5
0.5
0.5
0.5
0.5
0.5
0.5
0.5
0.5
0.5
0.495212
0.495101
0.494624
0.4954
0.493467
0.494219
0.495218
0.495244
0.496334
0.494585
0.494599
0.49669
0.497324
0.495741
0.497489
0.497238
0.496705
0.49736
0.497825
0.49993
0.499968
0.499965
0.499994
0.499664
0.4996
0.499732
0.499668
0.499983
0.499972
0.499682
0.499859
0.499992
0.499761
0.49958
0.499776
0.499952
0.499771
0.499955
0.499885
0.294846
0.322426
0.264764
0.334145
0.298134
0.297428
0.298927
0.24157
0.332946
0.322775
0.271589
0.30935
0.242869
0.271291
0.251015
0.320011
0.336765
0.335778
0.282396
0.0490818
0.0472419
0.0642765
0.0479672
0.042373
0.0348224
0.109733
0.111527
0.104155
0.169925
0.152144
0.036518
0.0710427
0.131596
0.0701026
0.0579162
0.5
0.5
0.5
0.5
0.5
0.5
0.5
0.5
0.5
0.5
0.5
0.5
0.5
0.5
0.5
0.5
0.5
0.5
0.5
0.5
0.5
0.5
0.5
0.5
0.5
0.5
0.5
0.5
0.5
0.5
0.5
0.5
0.5
0.5
0.5
0.5
0.5
0.5
0.5
0.5
0.5
0.5
0.5
0.5
0.5
0.5
0.5
0.5
0.5
0.5
0.5
0.5
0.5
0.5
0.5
0.5
0.5
0.471021
0.469929
0.475391
0.472166
0.474159
0.472149
0.469331
0.477677
0.469948
0.475339
0.472712
0.469582
0.5
0.5
0.5
0.5
0.5
0.5
0.5
0.5
0.5
0.5
0.5
0.5
0.5
0.5
0.5
0.5
0.5
0.5
0.5
0.5
0.5
0.5
0.5
0.5
0.5
0.5
0.5
0.5
0.5
0.5
0.5
0.5
0.5
0.5
0.5
0.5
0.5
0.5
0.5
0.5
0.5
0.5
0.5
0.5
0.5
0.5
0.5
0.5
0.5
0.5
0.5
0.5
0.5
0.5
0.5
0.5
0.5
0.5
0.5
0.5
0.5
0.5
0.5
0.5
0.5
0.5
0.5
0.5
0.5
0.5
0.5
0.5
0.5
0.5
0.5
0.5
0.5
0.5
0.5
0.5
0.5
0.5
0.5
0.5
0.5
0.5
0.5
0.5
0.5
0.5
0.5
0.5
0.5
0.5
0.5
0.5
0.5
0.5
0.5
0.5
0.5
0.5
0.5
0.5
0.5
0.5
0.5
0.5
0.5
0.5
0.5
0.5
0.5
0.5
0.5
0.5
0.5
0.5
0.499986
0.499991
0.49999
0.499984
0.499993
0.499933
0.499862
0.499977
0.49982
0.499908
0.499947
0.499858
0.499829
0.49997
0.0822126
0.0733664
0.0743539
0.124276
0.5
0.5
0.5
0.5
0.5
0.5
0.5
0.5
0.5
0.5
0.5
0.5
0.5
0.5
0.5
0.5
0.5
0.5
0.5
0.5
0.5
0.5
0.157029
0.20523
0.148682
0.10509
0.170868
0.214357
0.203947
0.182967
0.165869
0.125355
0.0854237
0.156662
0.105851
0.0611136
0.109221
0.115836
0.456774
0.464943
0.45104
0.450578
0.465561
0.461878
0.457179
0.460597
0.461252
0.465343
0.458289
0.44348
0.444811
0.434972
0.456029
0.450597
0.456533
0.461593
0.455276
0.45052
0.442665
0.449182
0.486541
0.48762
0.490085
0.487829
0.491603
0.493269
0.490374
0.49129
0.484898
0.493116
0.491728
0.492343
0.49051
0.490027
0.488529
0.493628
0.493239
0.492068
0.491441
0.38214
0.377932
0.3715
0.403547
0.377601
0.373932
0.408928
0.384314
0.374999
0.398914
0.368877
0.347387
0.3383
0.351101
0.341824
0.374736
0.394385
0.388105
0.371202
0.369341
0.382575
0.348085
0.5
0.5
0.5
0.5
0.5
0.5
0.5
0.5
0.5
0.5
0.5
0.5
0.5
0.5
0.5
0.5
0.5
0.5
0.5
0.499982
0.499975
0.499974
0.499979
0.499983
0.499977
0.499978
0.499984
0.499977
0.499986
0.499979
0.499946
0.499962
0.499964
0.499965
0.499952
0.499968
0.5
0.5
0.5
0.5
0.5
0.5
0.5
0.5
0.5
0.5
0.5
0.5
0.5
0.5
0.207212
0.195325
0.224197
0.20538
0.228956
0.28896
0.232145
0.285208
0.279541
0.32693
0.36846
0.330455
0.264888
0.320523
0.358587
0.28954
0.294361
0.165182
0.165276
0.18753
0.181959
0.188935
0.197762
0.155257
0.155891
0.196864
0.186558
0.197326
0.217866
0.196284
0.207616
0.171096
0.204434
0.209986
0.218994
0.21838
0.208295
0.198572
0.19255
0.1848
0.171598
0.18367
0.166655
0.183262
0.191141
0.187683
0.195312
0.205587
0.207791
0.214416
0.221125
0.225465
0.229942
0.239424
0.244368
0.210495
0.228104
0.237279
0.252285
0.290909
0.268472
0.307605
0.277467
0.234532
0.253391
0.255789
0.277901
0.288988
0.296995
0.276552
0.313412
0.227873
0.262596
0.285752
0.5
0.5
0.5
0.5
0.5
0.5
0.5
0.5
0.5
0.5
0.489484
0.493763
0.488436
0.487576
0.497268
0.495287
0.48953
0.489429
0.490181
0.490205
0.493707
0.496458
0.491563
0.496682
0.495873
0.491775
0.496099
0.495726
0.499848
0.499798
0.499806
0.499763
0.499883
0.499842
0.499716
0.499761
0.499841
0.499804
0.499806
0.499855
0.499849
0.26959
0.256392
0.274807
0.261974
0.255789
0.288159
0.26709
0.254992
0.235757
0.248768
0.275605
0.254598
0.236725
0.240764
0.497745
0.498838
0.495064
0.497854
0.498728
0.497568
0.495688
0.497334
0.498002
0.496847
0.497693
0.496991
0.495744
0.49768
0.495293
0.00106506
0.00143539
0.000988049
0.00046552
0.000683632
0.000493702
0.00607841
0.00796984
0.00062743
0.00100552
0.00458915
0.00595263
0.00171027
0.00194404
0.00142498
0.00860211
0.00481357
0.00273544
0.5
0.5
0.5
0.5
0.5
0.5
0.5
0.5
0.5
0.5
0.499999
0.499999
0.499995
0.499999
0.499986
0.499993
0.499997
0.499996
0.499999
0.499999
0.499999
0.499999
0.499997
0.499982
0.499988
0.499998
0.499995
0.499999
0.499996
0.499987
0.499991
0.499998
0.00146896
0.000301633
0.00224625
0.000458406
0.000831008
0.000185537
0.000496532
0.00215805
0.00242126
0.000267099
0.000389146
0.000339168
0.00103966
0.00152837
0.00182629
0.00102201
0.000923814
0.000609119
0.5
0.5
0.5
0.5
0.5
0.5
0.5
0.5
0.5
0.5
0.5
0.5
0.5
0.5
0.5
0.5
0.5
0.5
0.5
0.495923
0.49565
0.497615
0.497104
0.488748
0.488039
0.484885
0.481377
0.480801
0.482367
0.491737
0.493031
0.495846
0.493815
0.480448
0.478187
0.483437
0.488715
0.5
0.5
0.5
0.5
0.5
0.5
0.5
0.5
0.5
0.5
0.5
0.5
0.5
0.5
0.5
0.5
0.5
0.5
0.5
0.5
0.5
0.5
0.5
0.5
0.5
0.5
0.5
0.5
0.5
0.5
0.5
0.5
0.5
0.5
0.5
0.5
0.5
0.5
0.5
0.5
0.5
0.5
0.5
0.5
0.5
0.5
0.5
0.5
0.5
0.5
0.5
0.5
0.5
0.5
0.5
0.5
0.5
0.5
0.5
0.5
0.5
0.5
0.5
0.5
0.5
0.5
0.5
0.5
0.5
0.5
0.5
0.5
0.5
0.5
0.5
0.5
0.5
0.5
0.5
0.5
0.49752
0.497594
0.497668
0.499178
0.499012
0.498427
0.497828
0.498413
0.498011
0.498711
0.499302
0.49757
0.498737
0.499047
0.498483
0.496818
0.496862
0.496012
0.497592
0.496134
0.496983
0.496901
0.495834
0.496418
0.495483
0.497203
0.494645
0.49576
0.499023
0.499359
0.499291
0.498282
0.497068
0.5
0.5
0.5
0.5
0.5
0.5
0.5
0.5
0.5
0.5
0.5
0.5
0.5
0.5
0.5
0.469944
0.473552
0.47719
0.47815
0.468912
0.475012
0.46445
0.459489
0.462072
0.5
0.5
0.5
0.5
0.5
0.5
0.5
0.5
0.5
0.5
0.5
0.5
0.5
0.5
0.5
0.5
0.5
0.5
0.5
0.5
0.5
0.5
0.5
0.5
0.5
0.5
0.5
0.5
0.5
0.5
0.5
0.5
0.5
0.5
0.5
0.5
0.5
0.5
0.5
0.5
0.5
0.5
0.5
0.5
0.5
0.5
0.5
0.5
0.5
0.5
0.5
0.5
0.5
0.5
0.5
0.5
0.5
0.5
0.5
0.5
0.5
0.5
0.5
0.5
0.5
0.5
0.5
0.5
0.497126
0.496898
0.496431
0.496725
0.498903
0.498461
0.498911
0.498927
0.496504
0.499434
0.498671
0.497546
0.498144
0.499646
0.499777
0.498916
0.499437
0.499096
0.49957
0.49979
0.499792
0.499761
0.499802
0.498883
0.499805
0.499396
0.499987
0.499987
0.499987
0.499986
0.499991
0.49999
0.499993
0.499943
0.499967
0.49995
0.499967
0.499951
0.499948
0.499967
0.499968
0.499987
0.499979
0.499953
0.5
0.5
0.5
0.5
0.5
0.5
0.5
0.5
0.5
0.5
0.5
0.5
0.5
0.5
0.5
0.5
0.5
0.5
0.5
0.5
0.5
0.5
0.5
0.5
0.5
0.5
0.47735
0.482949
0.478968
0.477421
0.479024
0.478937
0.474669
0.474242
0.47411
0.475185
0.475239
0.477299
0.474687
0.492212
0.496894
0.497492
0.496436
0.495502
0.491786
0.490799
0.492859
0.497547
0.496416
0.496061
0.496236
0.497043
0.496631
0.496468
0.498504
0.499272
0.499196
0.497816
0.498482
0.499369
0.499477
0.499471
0.499552
0.499525
0.499319
0.499277
0.497492
0.498949
0.499323
0.49881
0.49863
0.499387
0.497599
0.498839
0.49875
0.499529
0.498236
0.496744
0.498639
0.499449
0.498986
0.498588
0.498603
0.496937
0.172972
0.172971
0.239967
0.274863
0.209047
0.260495
0.1961
0.192346
0.244459
0.249402
0.18602
0.5
0.5
0.5
0.5
0.5
0.5
0.5
0.5
0.5
0.5
0.5
0.5
0.5
0.5
0.5
0.499999
0.499999
0.499999
0.5
0.5
0.5
0.5
0.5
0.5
0.5
0.5
0.5
0.5
0.5
0.5
0.5
0.5
0.5
0.5
0.5
0.5
0.5
0.5
0.5
0.5
0.5
0.5
0.5
0.5
0.5
0.5
0.5
0.5
0.5
0.5
0.5
0.5
0.5
0.5
0.5
0.5
0.5
0.5
0.5
0.5
0.5
0.5
0.5
0.5
0.5
0.5
0.5
0.5
0.5
0.5
0.5
0.5
0.5
0.5
0.5
0.5
0.5
0.5
0.499999
0.5
0.5
0.499999
0.5
0.5
0.5
0.5
0.5
0.5
0.5
0.499996
0.499995
0.5
0.5
0.499999
0.499999
0.499996
0.499999
0.499999
0.499999
0.499363
0.499404
0.499338
0.499357
0.499723
0.499579
0.499712
0.49948
0.499933
0.499922
0.499837
0.49993
0.499871
0.499814
0.499921
0.499928
0.499734
0.499829
0.485014
0.463634
0.481738
0.478729
0.48283
0.469315
0.49112
0.491444
0.468552
0.491306
0.481426
0.461562
0.482608
0.48198
0.48115
0.48421
0.491203
0.481089
0.472731
0.491415
0.464713
0.481868
0.487815
0.491118
0.478362
0.464402
0.465443
0.443514
0.446686
0.452727
0.448855
0.454727
0.48041
0.471323
0.48008
0.491816
0.467364
0.494141
0.468441
0.362577
0.363458
0.435776
0.357312
0.362554
0.456573
0.397515
0.492658
0.106187
0.131784
0.241634
0.194058
0.108874
0.283191
0.25207
0.090377
0.0935172
0.253087
0.286174
0.136115
0.176479
0.259543
0.249579
0.182632
0.150655
0.192891
0.5
0.5
0.5
0.5
0.499997
0.499996
0.499998
0.499997
0.499999
0.5
0.499994
0.499992
0.499992
0.499993
0.5
0.5
0.499999
0.499994
0.499994
0.499998
0.496851
0.49634
0.498056
0.498424
0.498408
0.498728
0.49827
0.49772
0.496004
0.49719
0.498419
0.498247
0.498213
0.498299
0.499857
0.49999
0.499835
0.499806
0.499996
0.499992
0.499727
0.49996
0.499998
0.499868
0.499817
0.499726
0.499998
0.499995
0.499998
0.499999
0.499999
0.499999
0.466971
0.442717
0.444911
0.39253
0.371319
0.421391
0.425955
0.483685
0.370164
0.421062
0.475602
0.470765
0.475584
0.469276
0.448936
0.487704
0.397055
0.424362
0.488975
0.472094
0.484516
0.492672
0.5
0.5
0.499999
0.499999
0.5
0.5
0.5
0.5
0.5
0.5
0.5
0.5
0.5
0.5
0.5
0.5
0.5
0.5
0.5
0.5
0.5
0.5
0.5
0.5
0.5
0.5
0.5
0.5
0.5
0.5
0.5
0.5
0.5
0.5
0.5
0.283931
0.231412
0.280676
0.224265
0.273013
0.220532
0.242884
0.340127
0.499983
0.49998
0.5
0.499997
0.499997
0.499996
0.499997
0.499987
0.499998
0.499998
0.499983
0.499995
0.5
0.5
0.5
0.5
0.5
0.5
0.5
0.5
0.5
0.5
0.5
0.5
0.5
0.5
0.5
0.5
0.5
0.5
0.499995
0.499989
0.499971
0.49998
0.49999
0.499996
0.499986
0.499954
0.49997
0.499955
0.49996
0.499969
0.499987
0.49995
0.499963
0.499963
0.499945
0.499943
0.316468
0.315207
0.321194
0.339001
0.323924
0.346164
0.350107
0.339123
0.351247
0.354834
0.324941
0.364492
0.368159
0.373763
0.316824
0.337579
0.3598
0.362899
0.384475
0.378826
0.329012
0.372781
0.5
0.5
0.5
0.5
0.5
0.5
0.5
0.5
0.5
0.5
0.5
0.5
0.5
0.5
0.5
0.5
0.213581
0.248877
0.26389
0.244881
0.219249
0.213371
0.296252
0.308268
0.309317
0.300576
0.331703
0.328569
0.258314
0.300489
0.290524
0.31076
0.258879
0.250102
0.471233
0.410573
0.408442
0.441855
0.465163
0.463142
0.434936
0.429247
0.467008
0.463631
0.468741
0.466654
0.46761
0.475781
0.471328
0.475542
0.5
0.5
0.5
0.5
0.5
0.5
0.5
0.5
0.5
0.5
0.5
0.5
0.5
0.5
0.5
0.5
0.5
0.5
0.5
0.5
0.499924
0.499922
0.499641
0.499743
0.499995
0.499977
0.499999
0.499982
0.49986
0.499829
0.499999
0.499981
0.49998
0.49998
0.499999
0.499997
0.495898
0.495619
0.496035
0.494226
0.498454
0.494216
0.498185
0.494235
0.49817
0.49945
0.498524
0.499266
0.452905
0.448551
0.451741
0.443503
0.446739
0.446897
0.445995
0.455342
0.439118
0.440652
0.439631
0.438179
0.44951
0.449494
0.432847
0.433868
0.444377
0.499769
0.499525
0.498292
0.498958
0.499029
0.499187
0.499289
0.499842
0.499537
0.499812
0.499734
0.499655
0.499253
0.498587
0.498659
0.499599
0.499316
0.499065
0.499803
0.4998
0.499915
0.499949
0.499756
0.499809
0.499894
0.499898
0.499798
0.499996
0.499993
0.49998
0.499993
0.499994
0.499991
0.499991
0.499991
0.499971
0.499914
0.499909
0.5
0.5
0.5
0.5
0.5
0.5
0.5
0.5
0.5
0.5
0.5
0.5
0.5
0.5
0.5
0.5
0.5
0.5
0.5
0.5
0.5
0.5
0.5
0.5
0.5
0.5
0.5
0.5
0.5
0.5
0.5
0.5
0.5
0.5
0.5
0.5
0.5
0.5
0.5
0.5
0.335721
0.336292
0.349235
0.347933
0.327291
0.339536
0.306805
0.328295
0.325927
0.353553
0.370894
0.356356
0.321986
0.342427
0.355779
0.5
0.5
0.5
0.5
0.5
0.5
0.5
0.5
0.5
0.5
0.5
0.5
0.5
0.5
0.5
0.5
0.5
0.0632171
0.0529415
0.0733565
0.0678141
0.185876
0.169812
0.106552
0.113197
0.186961
0.208451
0.0629888
0.164964
0.171762
0.160113
0.177119
0.151976
0.157083
0.189834
0.202484
0.20708
0.220765
0.175264
0.43481
0.426956
0.388054
0.407064
0.407853
0.385719
0.442132
0.436807
0.428511
0.42959
0.444796
0.428077
0.385097
0.394408
0.389579
0.499444
0.499611
0.499403
0.499247
0.499472
0.499119
0.499041
0.499257
0.499286
0.499024
0.498803
0.499234
0.49922
0.499367
0.498919
0.499122
0.44448
0.440023
0.471213
0.459001
0.440706
0.419412
0.420172
0.435269
0.448173
0.456222
0.453339
0.434589
0.470855
0.462693
0.421281
0.459908
0.456431
0.453654
0.5
0.5
0.5
0.5
0.5
0.5
0.5
0.5
0.5
0.5
0.5
0.5
0.5
0.5
0.5
0.5
0.5
0.5
0.5
0.5
0.5
0.5
0.5
0.5
0.5
0.5
0.5
0.5
0.5
0.5
0.5
0.5
0.5
0.5
0.5
0.5
0.5
0.5
0.5
0.5
0.5
0.5
0.5
0.5
0.5
0.5
0.5
0.45384
0.463358
0.455304
0.46425
0.370741
0.386262
0.399727
0.383554
0.391189
0.452911
0.428984
0.451435
0.458832
0.391375
0.443638
0.440618
0.491393
0.491484
0.486384
0.488213
0.488224
0.480823
0.480535
0.470548
0.471049
0.484809
0.474127
0.473695
0.471896
0.5
0.5
0.5
0.5
0.5
0.5
0.5
0.5
0.5
0.5
0.5
0.5
0.5
0.499994
0.5
0.496243
0.495868
0.498307
0.495582
0.5
0.5
0.5
0.5
0.499997
0.499977
0.5
0.5
0.5
0.5
0.499069
0.5
0.5
0.5
0.5
0.5
0.5
0.5
0.5
0.5
0.5
0.5
0.5
0.5
0.5
0.5
0.5
0.5
0.406613
0.397856
0.410113
0.419593
0.388565
0.393098
0.4306
0.424531
0.414182
0.4006
0.424637
0.415183
0.414732
0.387234
0.398058
0.397291
0.404047
0.406496
0.158344
0.142084
0.162287
0.162793
0.165156
0.149207
0.154617
0.136509
0.139304
0.156711
0.167954
0.168573
0.160402
0.137755
0.132696
0.102909
0.0821141
0.0885735
0.0924995
0.141677
0.403645
0.406159
0.39913
0.425499
0.418148
0.46855
0.467589
0.46754
0.465876
0.47914
0.480113
0.480615
0.481905
0.456665
0.462462
0.462348
0.470771
0.478809
0.471657
0.499163
0.499231
0.499554
0.499612
0.499088
0.499147
0.499694
0.499584
0.499672
0.499259
0.498362
0.5
0.5
0.5
0.5
0.5
0.5
0.5
0.5
0.5
0.5
0.5
0.490165
0.487017
0.491868
0.492982
0.490448
0.488815
0.48627
0.495067
0.492511
0.489515
0.492288
0.487437
0.496251
0.496054
0.495258
0.5
0.5
0.5
0.5
0.5
0.5
0.5
0.5
0.5
0.5
0.5
0.5
0.5
0.5
0.5
0.5
0.5
0.5
0.5
0.5
0.5
0.498409
0.498372
0.498711
0.498646
0.498829
0.499125
0.499991
0.499987
0.499992
0.499997
0.499992
0.499991
0.499977
0.49971
0.499992
0.499886
0.49972
0.5
0.5
0.5
0.5
0.5
0.5
0.5
0.5
0.5
0.5
0.5
0.5
0.5
0.5
0.5
0.5
0.5
0.5
0.5
0.5
0.5
0.5
0.5
0.5
0.5
0.5
0.5
0.5
0.5
0.5
0.5
0.5
0.5
0.5
0.499487
0.499771
0.499586
0.499758
0.499021
0.498896
0.499938
0.49885
0.498918
0.49988
0.499889
0.498888
0.49884
0.499881
0.499999
0.499999
0.5
0.499998
0.499999
0.499999
0.5
0.499999
0.5
0.499999
0.5
0.137192
0.137665
0.11447
0.170642
0.1415
0.118309
0.121985
0.125497
0.108092
0.130492
0.132336
0.146688
0.151407
0.161063
0.159611
0.49874
0.498953
0.498819
0.498836
0.498309
0.498577
0.499054
0.498553
0.499238
0.499327
0.499393
0.499069
0.499259
0.498961
0.498868
0.498671
0.499145
0.498954
0.499696
0.499514
0.499756
0.499741
0.499785
0.499376
0.499041
0.499159
0.499675
0.499707
0.499506
0.499827
0.499766
0.499337
0.499405
0.499147
0.49892
0.498741
0.499705
0.49976
0.499702
0.5
0.5
0.5
0.5
0.5
0.5
0.5
0.5
0.5
0.5
0.5
0.5
0.5
0.5
0.5
0.5
0.5
0.5
0.5
0.5
0.5
0.5
0.5
0.5
0.5
0.5
0.5
0.5
0.5
0.5
0.5
0.5
0.5
0.5
0.5
0.5
0.5
0.5
0.5
0.5
0.146552
0.0647427
0.216703
0.198951
0.0557278
0.0626296
0.103804
0.170191
0.153651
0.175892
0.142836
0.185339
0.0360646
0.0208423
0.0508715
0.0458466
0.127659
0.127939
0.125837
0.14668
0.153739
0.0997201
0.0802202
0.105241
0.0839809
0.13963
0.110417
0.120353
0.0776936
0.11742
0.0911459
0.0809922
0.5
0.5
0.5
0.5
0.5
0.5
0.5
0.5
0.5
0.5
0.5
0.5
0.5
0.5
0.5
0.5
0.5
0.5
0.5
0.5
0.5
0.5
0.5
0.5
0.5
0.5
0.5
0.5
0.5
0.5
0.5
0.5
0.5
0.5
0.5
0.5
0.5
0.5
0.5
0.5
0.5
0.5
0.5
0.5
0.49911
0.498944
0.498711
0.498512
0.497498
0.498647
0.499463
0.497836
0.499046
0.498532
0.498733
0.498459
0.498537
0.498527
0.498615
0.496903
0.494494
0.494317
0.492329
0.49241
0.495879
0.496131
0.494066
0.498336
0.494912
0.495209
0.498128
0.5
0.5
0.5
0.5
0.5
0.5
0.5
0.5
0.5
0.5
0.5
0.5
0.5
0.5
0.5
0.5
0.5
0.5
0.5
0.5
0.5
0.5
0.5
0.5
0.5
0.5
0.5
0.5
0.5
0.5
0.5
0.446547
0.455625
0.459129
0.449433
0.445948
0.440709
0.440378
0.454363
0.434416
0.440076
0.5
0.5
0.5
0.5
0.5
0.5
0.5
0.5
0.5
0.5
0.5
0.5
0.5
0.5
0.5
0.5
0.5
0.5
0.5
0.5
0.5
0.5
0.5
0.5
0.5
0.5
0.5
0.5
0.5
0.5
0.5
0.5
0.5
0.5
0.5
0.5
0.5
0.5
0.5
0.5
0.5
0.5
0.5
0.5
0.5
0.5
0.5
0.5
0.5
0.5
0.5
0.5
0.5
0.5
0.5
0.5
0.5
0.5
0.5
0.5
0.5
0.5
0.5
0.5
0.5
0.5
0.5
0.5
0.5
0.5
0.5
0.5
0.5
0.5
0.5
0.5
0.5
0.5
0.5
0.5
0.5
0.5
0.5
0.5
0.5
0.5
0.5
0.5
0.5
0.5
0.5
0.5
0.5
0.5
0.5
0.5
0.5
0.5
0.5
0.5
0.5
0.5
0.5
0.5
0.5
0.5
0.5
0.5
0.5
0.5
0.5
0.5
0.5
0.5
0.5
0.5
0.5
0.5
0.5
0.5
0.5
0.499998
0.499998
0.49999
0.49999
0.499993
0.5
0.499999
0.5
0.499991
0.499963
0.499956
0.499957
0.499958
0.499998
0.49998
0.499999
0.499981
0.499962
0.499998
0.5
0.5
0.5
0.5
0.5
0.5
0.5
0.5
0.5
0.5
0.5
0.5
0.5
0.5
0.5
0.5
0.5
0.5
0.5
0.5
0.5
0.5
0.5
0.5
0.5
0.5
0.5
0.5
0.5
0.5
0.5
0.5
0.5
0.5
0.5
0.5
0.5
0.5
0.5
0.5
0.5
0.5
0.5
0.5
0.5
0.5
0.5
0.5
0.5
0.5
0.5
0.5
0.5
0.5
0.5
0.5
0.5
0.5
0.5
0.5
0.5
0.5
0.5
0.5
0.5
0.5
0.5
0.5
0.5
0.5
0.5
0.5
0.5
0.5
0.5
0.499998
0.5
0.5
0.5
0.5
0.499996
0.499999
0.5
0.499996
0.5
0.5
0.499999
0.499996
0.5
0.5
0.5
0.5
0.5
0.5
0.5
0.5
0.5
0.5
0.5
0.5
0.5
0.5
0.5
0.5
0.5
0.5
0.5
0.5
0.5
0.5
0.5
0.5
0.5
0.5
0.5
0.5
0.463455
0.4679
0.483376
0.487336
0.477938
0.495443
0.495451
0.488596
0.49695
0.495782
0.491654
0.491282
0.489009
0.480048
0.466252
0.474198
0.495623
0.48512
0.49544
0.495347
0.495613
0.481091
0.484822
0.469641
0.491867
0.494045
0.49326
0.494485
0.494785
0.492311
0.492673
0.495027
0.494697
0.493797
0.490959
0.492496
0.4933
0.5
0.5
0.5
0.5
0.5
0.5
0.5
0.5
0.5
0.5
0.5
0.5
0.5
0.5
0.5
0.5
0.253775
0.255404
0.239231
0.269116
0.266118
0.286803
0.284223
0.231479
0.222922
0.256441
0.274278
0.221969
0.261453
0.245788
0.499949
0.499975
0.499795
0.499859
0.499977
0.499977
0.499952
0.499987
0.499801
0.499864
0.499978
0.499989
0.499988
0.499918
0.499989
0.499988
0.499978
0.499797
0.499871
0.499844
0.499588
0.499591
0.499755
0.499687
0.499434
0.499392
0.498846
0.499191
0.499125
0.499134
0.499576
0.499416
0.499678
0.499585
0.499163
0.499396
0.499499
0.499461
0.499534
0.499568
0.5
0.5
0.5
0.5
0.5
0.5
0.5
0.5
0.5
0.5
0.5
0.5
0.5
0.5
0.5
0.5
0.5
0.5
0.5
0.5
0.5
0.5
0.5
0.5
0.5
0.5
0.5
0.5
0.5
0.5
0.5
0.5
0.5
0.5
0.5
0.5
0.5
0.2362
0.187766
0.246494
0.130748
0.1075
0.191379
0.128805
0.186374
0.168034
0.173707
0.0997671
0.147288
0.422827
0.418436
0.462175
0.460882
0.391402
0.372874
0.479754
0.479806
0.479779
0.48043
0.48212
0.466239
0.471388
0.471156
0.0503635
0.0302541
0.00218142
0.00100284
0.0542321
0.0726586
0.146114
0.110315
0.167075
0.107637
0.0506773
0.150277
0.105671
0.0999329
0.101636
0.117513
0.143402
0.107389
0.000183454
0.000275404
0.000196543
0.000207623
0.000159776
1.82025e-05
4.57815e-05
0.00101922
0.000755199
1.14522e-05
8.15194e-05
1.43912e-05
9.99394e-05
4.82077e-05
8.89764e-05
0.000100962
0.000311951
5.99344e-05
0.5
0.5
0.5
0.5
0.5
0.5
0.5
0.5
0.5
0.5
0.499998
0.499996
0.499994
0.499997
0.499992
0.49999
0.499988
0.49999
0.499987
0.499989
0.499992
0.499989
0.499995
0.499996
0.499986
0.499988
0.499995
0.499956
0.499947
0.499911
0.499925
0.49996
0.499856
0.499942
0.499959
0.499964
0.499847
0.499929
0.499852
0.499923
0.499965
0.499658
0.499645
0.499926
0.49971
0.499785
0.499792
0.499757
0.499724
0.499744
0.499778
0.499815
0.499676
0.499807
0.499865
0.499787
0.499807
0.49986
0.49985
0.499782
0.499849
0.499667
0.499759
0.499794
0.499593
0.499558
0.499636
0.499681
0.499817
0.499823
0.499634
0.499773
0.499727
0.0254519
0.036872
0.0474511
0.134743
0.139084
0.0123617
0.00646148
0.00951573
0.120484
0.0256338
0.0543487
0.0408189
0.345612
0.367863
0.456983
0.455507
0.376216
0.371973
0.342169
0.435965
0.436929
0.385483
0.353801
0.499685
0.499528
0.499646
0.499357
0.499646
0.499477
0.499342
0.499413
0.499172
0.499321
0.499468
0.499492
0.499287
0.499403
0.49677
0.492981
0.493432
0.491445
0.473663
0.480156
0.469714
0.491895
0.496493
0.49765
0.482743
0.474702
0.497524
0.486047
0.48041
0.218451
0.20575
0.220058
0.233703
0.284215
0.30556
0.20865
0.292916
0.308325
0.237351
0.209422
0.237945
0.291886
0.271579
0.259698
0.236519
0.23341
0.264801
0.253171
0.277904
0.484598
0.481864
0.480449
0.484259
0.481467
0.485818
0.484915
0.487918
0.48858
0.479561
0.488655
0.48249
0.483766
0.480385
0.465198
0.473695
0.46716
0.453791
0.422439
0.424606
0.461451
0.433653
0.438528
0.241527
0.241842
0.249183
0.140607
0.14903