/*--------------------------------*- C++ -*----------------------------------*\
  =========                 |
  \\      /  F ield         | OpenFOAM: The Open Source CFD Toolbox
   \\    /   O peration     | Website:  https://openfoam.org
    \\  /    A nd           | Version:  10
     \\/     M anipulation  |
\*---------------------------------------------------------------------------*/
FoamFile
{
    format      ascii;
    class       volScalarField;
    location    "8";
    object      eff_dif;
}
// * * * * * * * * * * * * * * * * * * * * * * * * * * * * * * * * * * * * * //

dimensions      [0 2 -1 0 0 0 0];

internalField   nonuniform List<scalar> 
75457
(
-0.0459422
-0.0415602
-0.0381246
-0.0344507
-0.0291109
-0.031595
-0.0414549
-0.0418334
-0.02853
-0.0223132
-0.0261805
-0.0292771
-0.0290931
-0.0262386
-0.0055852
-0.00608581
-0.00594434
-0.00609822
-0.00649376
-0.00601848
-0.00551275
-0.00622282
-0.00624827
-0.00670165
-0.00644175
-0.00686586
-0.00643468
-0.00131109
-0.00129547
-0.000758734
-0.000672298
-0.000593921
-0.000650796
-0.000992082
-0.000533554
-0.00143339
-0.00129659
-0.00129966
-0.00160171
-0.000695424
-0.00104187
-0.00069123
-0.00111302
-0.0108941
-0.0104506
-0.00989925
-0.0100472
-0.0104509
-0.00613822
-0.00670468
-0.00706077
-0.00649896
-0.00659641
-0.00671586
-0.00715734
-0.00718749
-0.00687119
-0.00709136
-0.00647395
-0.00675716
-0.0065239
-0.00642192
0.0277804
0.0280695
0.0278036
0.0281599
0.0284229
0.0284393
0.0280677
0.0281095
0.0284112
0.0281892
0.0278775
0.0281807
0.0281647
0.0278174
0.0280515
-0.0117247
-0.0131671
-0.0108237
-0.0133035
-0.0153689
-0.00778831
-0.00834475
-0.0103716
-0.0113892
-0.0114712
-0.0107229
-0.00778852
-0.00932146
-0.00773445
-0.0079685
-0.00914996
-0.00791122
-0.00904887
-0.00921779
-0.00924615
-0.0095927
-0.00918009
-0.00901767
-0.0101952
-0.00942806
0.0289546
0.0288451
0.0291041
0.029121
0.0289893
0.0288406
0.0287597
0.0292079
0.0292101
0.0288272
0.0288364
0.0197476
0.0204005
0.0228333
0.0224113
0.0198094
0.0213655
0.0213999
0.020881
0.0212306
0.0228943
0.0226809
0.0232193
0.023753
0.0225205
0.0219682
0.0207866
0.0231747
0.0221861
0.0113721
0.0113435
0.0107731
0.0116402
0.0112459
0.0127444
0.0124327
0.0123256
0.0123225
0.00555445
0.00510454
0.00565721
0.00520384
0.0046497
0.00514808
0.00517246
0.00423815
-0.00941375
-0.00945687
-0.00886023
-0.00905751
-0.00944496
-0.00910105
-0.00880967
-0.00832077
-0.00678977
-0.00684473
-0.00837782
-0.00810107
-0.00764202
-0.00833637
-0.00722407
0.013924
0.0154979
0.015734
0.015078
0.0154925
0.0118257
0.0131935
0.0147311
0.0137583
0.0146956
0.0120407
0.0107563
0.011332
-0.0117177
-0.0121896
-0.0120525
-0.0122671
-0.0120159
-0.0121818
-0.011492
-0.01217
-0.0120369
-0.0122661
-0.0122507
-0.0120741
-0.0119957
-0.012142
-0.0110067
-0.009706
-0.0122182
-0.00951927
-0.00993751
-0.0114427
0.00732027
0.00804049
0.00662171
0.00755841
0.00570404
0.00646977
0.00900536
0.00864574
0.00780191
0.004982
0.00491218
-0.00979518
-0.00964173
-0.0100462
-0.0100001
-0.00995344
-0.00988215
-0.0097166
-0.00958545
-0.00919009
-0.0100235
-0.00977475
-0.00955171
-0.00990976
-0.00951449
0.0028288
0.00195173
0.00231918
0.000675697
0.00121038
0.0018475
0.00160591
0.00290257
0.0024958
0.00167128
0.00101851
0.00044244
0.00260618
0.000999683
-0.00920085
-0.00926863
-0.00900172
-0.00893691
-0.00923536
-0.00917048
-0.00928022
-0.00922439
-0.00942484
-0.0089414
-0.00920433
-0.0086781
-0.00931031
-0.00940787
-0.0091371
-0.00908474
-0.00923994
-0.0114602
-0.0112591
-0.0112579
-0.0111813
-0.0124803
-0.0110423
-0.0110425
-0.0104155
-0.0111178
-0.0116911
-0.0105907
-0.0113789
-0.00974063
-0.00978589
-0.00967932
-0.00975115
-0.00950258
-0.00946319
-0.00973652
-0.00955713
-0.00935455
-0.00958336
-0.00957228
-0.00932534
-0.00947816
-0.00673374
-0.00660293
-0.00679296
-0.00643507
-0.00646662
-0.00631387
-0.00617269
-0.00612739
-0.00614382
-0.00643388
-0.00674322
-0.00660087
-0.0060526
-0.00637206
-0.00637274
-0.000438338
-0.000373411
-0.000221185
-0.000420874
-0.000198072
-0.000296571
-0.000627561
-0.000704061
-0.000214746
0.000123494
0.00109242
0.000327731
0.000511965
0.000952164
0.00218494
0.000667903
0.000416016
0.00124195
0.000195795
0.00051379
-9.11875e-05
0.000321522
-0.00510085
-0.00570842
-0.00443331
-0.00451066
-0.00476624
-0.0051656
-0.00571949
-0.00528089
-0.00562219
-0.00571288
-0.00557516
-0.00836713
-0.00846776
-0.00861529
-0.00857112
-0.00850985
-0.00830004
-0.00832201
-0.00867445
-0.00887818
-0.00873695
-0.0089573
-0.00814679
-0.00843744
-0.00851561
-0.00870535
-0.00849749
-0.00858522
-0.013075
-0.0117089
-0.011045
-0.0134114
-0.0164597
-0.0159826
-0.0156144
-0.0153702
-0.0148211
-0.0139562
-0.0157438
-0.00417412
-0.0046042
-0.00514153
-0.00501066
-0.0047
-0.0047939
-0.00430189
-0.00518692
-0.00504153
-0.00470409
-0.00458424
-0.000266977
-0.000214518
-0.000410006
-0.000521647
-0.000179206
-0.000155558
-0.000464496
-0.000207118
-0.000572796
-0.000647379
-0.000651863
-0.000247075
-0.000479983
-0.000969854
-0.000943745
-0.00616082
-0.00471384
-0.00751876
-0.00597037
-0.00614434
-0.0091066
-0.00951891
-0.00906143
-0.00939158
-0.00952477
-0.00909256
-0.00991199
0.0468094
0.0515776
0.0402012
0.0428778
0.0456205
0.0475895
0.0473776
0.0501941
0.0425866
0.0470342
0.0454291
0.046381
0.0422815
0.0467643
0.0412308
0.0425554
0.0444828
0.0396164
0.0315115
0.0310545
0.0317186
0.0323994
0.033314
0.0342243
0.0317632
0.032433
0.0347862
0.0381502
0.034937
0.035252
0.0370228
0.0226408
0.0198823
0.0174995
0.0191578
0.0235023
0.0202161
0.0188033
0.020279
0.0199248
0.0180139
0.0252149
0.0252346
0.018619
0.0201482
0.0175216
0.0235699
0.0257284
0.0258929
0.022008
0.0219291
0.0225586
0.0237921
-0.0109101
-0.0113638
-0.0115568
-0.0115539
-0.011649
-0.0110399
-0.0111098
-0.0112502
-0.0114277
-0.0110222
-0.0114384
-0.0110272
-0.0111519
-0.0111339
-0.0112264
-0.0112048
-0.037366
-0.0417842
-0.0243594
-0.030925
-0.0228724
-0.0306782
-0.0285988
-0.0258715
-0.0224524
-0.0285368
-0.04667
-0.0411837
-0.0270586
-0.0369578
-0.0236093
-0.0247366
-0.000204166
-0.000359325
-0.000198367
0.000637618
0.00101802
0.00161531
-0.00054995
-0.000884245
0.000770526
0.000744897
0.001621
0.00127692
0.00100238
0.000923506
0.000761948
0.000113254
-0.000620647
0.000193843
0.0307083
0.0350078
0.033619
0.0299863
0.0313291
0.0341426
0.0375765
0.0366105
0.0317625
0.0376577
0.0394165
0.0375996
0.0337666
0.0305182
0.0313115
0.0321732
0.0238407
0.0232152
0.0237225
0.0235015
0.0227008
0.024417
0.0250013
0.024407
0.0237673
0.0247445
0.0241817
0.0233727
0.024213
0.0226532
0.0233207
0.0248333
0.0253131
0.010104
0.0099372
0.00963337
0.0099738
0.0099566
0.0100352
0.0102126
0.0102295
0.0102083
0.0100891
0.00975499
0.00982271
0.0102697
0.00997667
0.01012
0.00938924
0.00943599
-0.00654896
-0.00761848
-0.00942604
-0.00837137
-0.00730261
-0.00743619
-0.00680407
-0.0068856
-0.00794697
-0.00762382
-0.00918909
-0.00945987
-0.00817941
-0.00715782
-0.00932177
-0.00810888
-0.00808776
-0.00894233
-0.00547071
-0.00566057
-0.00530836
-0.00537383
-0.00488023
-0.00493192
-0.00508884
-0.00505664
-0.00448645
-0.00474018
-0.00494182
-0.0044957
-0.00432447
-0.00482579
-0.00837605
-0.00765828
-0.0087124
-0.00942693
-0.0095689
-0.00909327
-0.00877371
-0.0084708
-0.00832237
-0.00977708
-0.00955057
-0.00950102
-0.00867774
-0.00806192
-0.00845323
-0.00930054
-0.00930409
-0.00957063
0.0181086
0.0138665
0.0146899
0.0216187
0.0179389
0.0120291
0.0148564
0.0153063
0.0117391
0.0201245
0.0151152
0.0122974
-0.00983889
-0.00957355
-0.009274
-0.00909238
-0.00942167
-0.00947264
-0.00780978
-0.00828485
-0.00953159
-0.00948197
-0.00942123
-0.00848142
-0.00840241
-0.0092444
-0.00928763
-0.00915719
-0.00617607
-0.00676311
-0.00563024
-0.00612084
-0.00750194
-0.00755514
-0.00741871
-0.00611066
-0.00597758
-0.00585941
-0.00575406
-0.00696571
-0.00764172
-0.00616749
-0.00572042
-0.00676781
0.00243162
0.00167727
0.00101385
0.00423344
0.00513729
0.00268865
0.00337997
0.000157179
0.001756
0.00244636
0.00405327
0.00295404
0.00399666
0.00480789
0.00454784
0.00145538
0.00156341
0.00284204
0.000958149
-0.00391545
-0.00299836
-0.00365481
-0.00558918
-0.00466097
-0.00344385
-0.00541999
-0.00499171
-0.00381554
-0.00421103
-0.00403318
-0.00530112
-0.00401436
-0.00370259
-0.001772
-0.00152528
-0.00191595
-0.00236517
-0.00192296
-0.00232098
-0.00212014
-0.00190272
-0.0024071
-0.00186969
-0.00222186
-0.00215938
-0.00274546
-0.00182542
-0.00193368
-0.00183747
-0.0016422
-0.00229817
-0.006052
-0.00665996
-0.00574473
-0.00440785
-0.00486622
-0.0085429
-0.00600784
-0.00571274
-0.00570286
-0.00679467
-0.00825433
-0.0115326
-0.0117748
-0.0123481
-0.011722
-0.0122862
-0.0132195
-0.0120769
-0.0132678
-0.0103016
-0.0102963
-0.0133862
-0.0142131
-0.0135208
-0.0130414
-0.0122907
-0.014093
-0.0122659
-0.0127729
-0.0129125
-0.0129711
-0.011954
-0.0114561
-0.0115501
-0.0112912
-0.0114949
-0.0111799
-0.0113656
-0.0113899
-0.0113001
-0.0111054
-0.0111407
-0.0113745
-0.0111603
-0.0113039
-0.0111604
-0.0112942
-0.0112368
-0.0112419
-0.00860008
-0.00909558
-0.0106907
-0.0110855
-0.00945073
-0.00995955
-0.0108897
-0.0109288
-0.00964903
-0.0107356
-0.00979067
-0.00494419
-0.00526984
-0.00383728
-0.00331124
-0.0042275
-0.00323575
-0.00365132
-0.00282373
-0.00400277
-0.00380788
-0.00394092
-0.00354525
-0.00370153
-0.00403718
-0.00376978
-0.00365656
-0.00407276
-0.00394362
-0.00329612
-0.00387904
-0.00361839
-0.0040756
-0.00405481
-0.00352495
-0.00352836
-0.00374214
-0.00318221
-0.00365516
-0.00340803
-0.0031386
-0.00349062
-0.00307286
-0.00343402
-0.00362153
-0.00316348
-0.00798078
-0.00815683
-0.00807934
-0.00798599
-0.00758197
-0.00713375
-0.0080724
-0.00678751
-0.00765406
-0.00640511
-0.00703814
-0.00746676
-0.00781279
-0.00715206
-0.00716251
-0.00853073
-0.00756157
-0.00677816
-0.00663127
-0.00652874
-0.0076311
-0.00774059
-0.00806584
-0.00808286
-0.00724543
-0.00733493
-0.00850991
-0.00809461
-0.00778803
-0.00705864
-0.00728127
-0.00721142
-0.00696827
-0.00738641
-0.00749954
-0.00788333
-0.00679267
-0.00699668
-0.0074569
-0.00790509
-0.00685908
-0.00712263
-0.00843564
-0.00942973
-0.0077295
-0.00846057
-0.00818659
-0.00969897
-0.00758318
-0.00743334
-0.00749027
-0.00824201
-0.00924895
-0.00879236
-0.00898878
-0.00773551
-0.00752443
-0.00843403
-0.00814633
-0.00731442
-0.0069031
-0.00829173
-0.00749698
-0.00835065
-0.00938449
-0.00875699
-0.00837064
-0.00788569
-0.00783237
-0.00881797
-0.00895499
-0.00964506
-0.00837801
0.0188792
0.0195361
0.0204855
0.019298
0.0201371
0.018992
0.0200546
0.0188071
0.0193371
0.0203846
-0.010886
-0.0107654
-0.0104216
-0.0104903
-0.0111264
-0.0109726
-0.0105437
-0.0106461
-0.0110832
-0.0103588
-0.0107579
-0.0104756
-0.0104749
-0.0110201
-0.0105033
-0.0107626
-0.0109356
-0.0116735
-0.0110519
-0.0119543
-0.0117227
-0.0114775
-0.012131
-0.0109294
-0.0117512
-0.0109182
-0.0106628
-0.0116748
-0.0119911
-0.0108003
-0.011833
-0.0118787
-0.0114989
-0.0111094
-0.0121187
-0.0114921
-0.0114956
0.00953193
0.0099452
0.0106659
0.0100456
0.00971245
0.0109041
0.00740476
0.00894858
0.00917671
0.00889041
0.00819735
0.0103363
0.00974954
0.0103258
0.00943346
0.00901315
-0.0160578
-0.0174072
-0.0164598
-0.0157941
-0.0159206
-0.0140771
-0.0149341
-0.0160182
-0.0160276
-0.0166461
-0.0128183
-0.0140094
-0.0156516
-0.0128474
-0.0138057
-0.0118514
-0.0114834
-0.0115644
-0.0126102
-0.0126426
-0.0132663
-0.0115803
-0.0110266
-0.0108977
-0.0119321
0.00904213
0.00799096
0.00765263
0.0077706
0.00771539
0.00628197
0.00597118
0.00539974
0.00549311
0.00602126
0.00610589
0.00520667
0.00682433
0.00600672
0.00768027
0.00779632
0.00592286
0.00700322
0.00657621
-0.0102066
-0.0101546
-0.010983
-0.0103344
-0.0117774
-0.0103742
-0.00990037
-0.01059
-0.010738
-0.0102571
-0.0101804
-0.0109296
-0.0111488
-0.0116341
-0.01094
-0.0105643
-0.01032
-0.0112634
-0.0109411
-0.00878754
-0.00978957
-0.00961196
-0.00933572
-0.00907355
-0.00977773
-0.00889399
-0.00862134
-0.0100703
-0.0100554
-0.0106361
-0.00992065
-0.0104032
-0.0103075
-0.0106933
-0.0105185
0.0177114
0.0182563
0.0174754
0.0173197
0.0184236
0.0193783
0.0193791
0.0183385
0.0182478
0.0191007
0.019315
0.0183446
0.0193921
0.0198894
0.0206293
0.0200206
-0.0140094
-0.0161812
-0.0128911
-0.0132029
-0.0158513
-0.0182785
-0.00992283
-0.0108187
-0.0126338
-0.0148561
-0.0124187
-0.0132585
-0.0148324
-0.0180797
-0.0164318
-0.0113613
-0.0151225
-0.0128452
-0.0152452
-0.0177337
0.0555182
0.0495257
0.0452762
0.0449477
0.0539974
0.055267
0.0487616
0.0535756
0.0477646
0.0497758
0.0473535
0.0478658
0.0446446
0.0445089
0.0502372
0.018348
0.0170042
0.0216677
0.0232632
0.0211077
0.0181081
0.0235266
0.0200826
0.0225032
0.0257863
0.0246744
0.0259125
0.0277028
0.0254608
-0.0165719
-0.0173125
-0.0168736
-0.0176232
-0.0157024
-0.0159748
-0.0143494
-0.013207
-0.0155716
-0.0155136
-0.013691
-0.0132202
-0.0159994
-0.0142656
-0.0139515
-0.01457
-0.00700841
-0.00668357
-0.00680031
-0.00694209
-0.00662683
-0.00699545
-0.00668663
-0.00705507
-0.00722522
-0.00648737
-0.0064936
-0.00649591
-0.0071256
-0.00696183
-0.00652633
-0.00678292
-0.00670316
-0.00709917
-0.00686454
-0.011683
-0.0115889
-0.0112818
-0.0121567
-0.0122276
-0.0120721
-0.0113061
-0.0121945
-0.0120221
-0.0105913
-0.0112297
-0.0111609
-0.0114015
-0.0111506
-0.0123517
-0.0120785
-0.0109754
-0.0114072
-0.0111951
-0.0112565
-0.0109739
-0.0110328
-0.011473
-0.0109113
-0.011056
0.0273002
0.0264303
0.0264754
0.0269682
0.027153
0.0267161
0.0264856
0.0265402
0.0272608
0.0270342
0.0271097
0.0268364
0.0269778
0.0267377
0.02708
0.0271377
0.0271242
0.0269026
0.0265399
0.0272208
-0.0088102
-0.00961272
-0.00875244
-0.00924407
-0.00873197
-0.00842673
-0.0085789
-0.00934351
-0.0083567
-0.00865703
-0.00885964
-0.0090452
-0.00596309
-0.00603205
-0.00553413
-0.00536046
-0.0051404
-0.00601402
-0.00600641
-0.00615911
-0.00585143
-0.00535848
-0.00530971
-0.00562234
-0.00573011
-0.00529272
-0.00547971
-0.00546546
-0.00563281
-0.00549075
-0.00360781
-0.00340529
-0.00367254
-0.00339035
-0.00355414
-0.00394699
-0.00402588
-0.00417078
-0.00424536
-0.00345362
-0.00393807
-0.00357497
-0.00428535
-0.00411408
-0.00377706
-0.00359384
-0.00429192
-0.00392632
-0.00352103
-0.00281454
-0.00295639
-0.00315535
-0.00226498
-0.00283933
-0.0025472
-0.00234953
-0.00345906
-0.00286034
-0.00348984
-0.00347428
-0.0025547
-0.00246197
-0.00275117
-0.00359609
-0.00360944
-0.00695263
-0.0066457
-0.007066
-0.00682859
-0.00617173
-0.00602561
-0.00616698
-0.00724921
-0.00739198
-0.0111169
-0.0109106
-0.0109279
-0.011117
-0.0112919
-0.0112801
-0.0110848
-0.0113514
-0.0110266
-0.0109719
-0.0112603
-0.0110539
-0.00563744
-0.00543482
-0.00566114
-0.00564414
-0.00559616
-0.0057955
-0.00573753
-0.00591454
-0.00600091
-0.00574909
-0.00627269
-0.00614574
-0.00612996
-0.00624296
-0.00605857
-0.00621128
0.0274139
0.0275839
0.0273755
0.0270975
0.0267057
0.0267094
0.0262982
0.026244
0.0265434
0.0271088
-0.0084053
-0.00817775
-0.0084262
-0.00818182
-0.00851506
-0.00838235
-0.00865069
-0.00860786
-0.00877073
-0.00876406
-0.00854579
-0.00836235
-0.00858426
-0.00892022
-0.00886061
-0.00864043
-0.0086002
-0.00853735
-0.00675127
-0.00709025
-0.00666289
-0.00678983
-0.00673494
-0.00668933
-0.00693687
-0.00669669
-0.00689051
-0.00737677
-0.00711317
-0.00715828
-0.00690658
-0.0071149
-0.00663498
-0.00677646
-0.00698937
-0.00675946
0.00660379
0.00597714
0.00541847
0.00637762
0.00452613
0.00400645
0.0069757
0.00646141
0.00517328
0.0066511
0.00566821
0.00476557
0.00549058
0.00552016
0.0276935
0.0275958
0.0274587
0.0272909
0.0277481
0.0273205
0.0271375
0.0271727
0.0274892
0.0272974
0.0274932
0.0276194
0.0271689
0.0271398
0.027028
0.0270686
0.027458
0.02725
0.0274079
0.0271663
0.0406908
0.039214
0.0326236
0.0357866
0.0250565
0.0294301
0.0148326
0.0305313
0.0308241
0.0281781
0.0338631
0.0238158
0.0353374
0.0403467
0.0363282
0.0437234
0.0256737
0.0368228
0.0323211
-0.0140722
-0.015183
-0.0107533
-0.00981269
-0.0147737
-0.0178063
-0.0178606
-0.020641
-0.0105991
-0.0106917
-0.023427
-0.0199872
-0.0133426
-0.0167948
-0.0194959
-0.0137855
-0.0143124
-0.0209215
-0.0169135
-0.0176228
-0.00166026
-0.00232418
-0.00212068
-0.00239206
-0.00271449
-0.00198691
-0.00334919
-0.00252293
-0.00268531
-0.00260615
-0.00235016
-0.00235386
-0.00304491
-0.00220051
-0.00333902
-0.00319069
-0.00312865
-0.00303882
-0.00235482
-0.0109358
-0.011682
-0.0131793
-0.0134993
-0.0138796
-0.0133664
-0.0111941
-0.0116896
-0.0128674
-0.00975418
-0.0114789
-0.0119918
-0.0115222
-0.0123908
-0.0125443
-0.0125841
0.0297869
0.029738
0.029604
0.0296805
0.0299493
0.0299654
0.0298441
0.0298703
0.0296818
0.0295499
0.0300595
0.0298358
0.0300022
0.0299994
0.0296308
0.0295487
0.0297124
0.0298791
0.0300105
0.0296131
-0.00227339
-0.00241887
-0.00185549
-0.0014384
-0.00436239
-0.00444799
-0.00487297
-0.0057265
-0.00364254
-0.00225447
-0.00188356
-0.00436459
-0.00470938
-0.00523436
-0.00595836
-0.00584574
-0.00353697
-0.00534538
-0.00510009
-0.00404554
0.0297788
0.0296417
0.0297237
0.0297663
0.0297557
0.0297875
0.0297125
0.0298369
0.0299044
0.0299205
0.029991
0.0296878
0.0298507
0.0298381
0.0299395
0.029924
0.0298011
-0.00613797
-0.00608197
-0.00622221
-0.00649497
-0.00641635
-0.00612274
-0.00586964
-0.00624307
-0.00636173
-0.00663662
-0.00593261
-0.00549424
0.0277158
0.0275376
0.0280935
0.0280999
0.0278474
0.0278003
0.0274408
0.0276549
0.027899
0.0280543
0.0280965
0.0277262
0.0275387
0.0276588
0.0274666
0.0276606
0.0274532
0.0277275
0.0277934
0.0274511
0.0276985
0.0210558
0.0206154
0.0207085
0.0211304
0.0211891
0.020353
0.0207526
0.0224104
0.0225917
0.0223841
0.0216664
0.0213192
0.0209316
0.020852
0.0209088
0.0215822
0.0214927
0.0214714
0.00716622
0.00742166
0.00750192
0.00708981
0.00734931
0.00804494
0.00768969
0.00772717
0.00747925
0.00862172
0.00845113
0.00869674
0.00852998
0.00760894
0.00734146
0.0482688
0.0432036
0.0374162
0.0388574
0.0451935
0.0431671
0.0545193
0.0400145
0.0469149
0.0418329
0.0541591
0.0538951
0.0496327
0.0429908
-0.0046998
-0.0044214
-0.00482895
-0.00522152
-0.0052877
-0.00534984
-0.00474061
-0.00494966
-0.00486617
-0.0047365
-0.00524162
-0.00512338
-0.00482275
-0.00433381
-0.00442694
-0.00477668
0.0238179
0.0217817
0.0233923
0.0216116
0.0212911
0.0216674
0.0220031
0.0220597
0.022894
0.0233041
0.0257222
0.0252165
0.0242651
0.0265177
0.0271044
0.0245495
0.0255881
0.0289526
0.0289036
0.0284932
0.0285989
0.0286961
0.0287604
0.0289792
0.0290207
0.0284533
0.0285764
0.0289289
0.02895
0.0289091
0.0287774
0.0287363
0.0289031
0.0287002
-0.0193597
-0.0168894
-0.0166183
-0.0209002
-0.0163046
-0.0215605
-0.0281876
-0.0159068
-0.0190155
-0.0192814
-0.0183172
-0.0200221
-0.0216709
-0.017011
-0.0169192
-0.0167753
-0.0133206
-0.0148606
0.0156606
0.0153269
0.0169669
0.0166466
0.0159006
0.014615
0.0149971
0.0165716
0.0170898
0.0166846
0.0164201
0.0167438
0.0150187
0.0147707
0.0141378
0.0159909
0.0148256
0.0154383
0.0144206
0.0159406
0.0152393
0.0150014
-0.00721714
-0.00747548
-0.00725501
-0.0072017
-0.00629524
-0.00641022
-0.00495263
-0.00519375
-0.00651863
-0.00727152
-0.00701178
-0.00664647
-0.00539746
-0.00567393
-0.00528148
-0.00531464
-0.00498674
-0.00555857
-0.00483743
-0.00492683
-0.00540456
-0.00522161
-0.00499088
-0.0053277
-0.00561011
-0.00540307
-0.00550705
-0.00471067
-0.00473977
-0.0046355
-0.00482178
-0.00479723
-0.0055297
-0.0054882
-0.00544954
-0.00512993
-0.0047199
-0.00521753
-0.00639623
-0.00632221
-0.00638768
-0.00652632
-0.00675882
-0.00683448
-0.00631761
-0.0067158
-0.00623725
-0.00646054
-0.00615644
-0.0066972
-0.00583752
-0.00616109
-0.00594834
-0.00677245
-0.00635129
-0.00598245
-0.00673636
-0.00733575
-0.00731348
-0.00667004
-0.00857668
-0.00642353
-0.00466633
-0.00860098
-0.00864557
-0.00191129
-0.00292118
-0.00072232
-0.00526224
-0.00246961
-0.00541289
-0.00463331
-0.00721596
-0.00665355
-0.00401224
-0.00364098
0.000461748
-0.00208653
-0.000763585
0.00409703
0.0025477
0.00188119
0.00235374
0.00290669
0.00450124
0.00437206
0.0034171
0.00269834
0.00190674
0.00226303
0.00235953
0.00204913
0.00307536
0.00292818
0.00401914
0.0028203
0.00208749
0.00271344
-0.0095284
-0.00909386
-0.00929216
-0.00934201
-0.00947127
-0.00950899
-0.0097011
-0.00999908
-0.00951417
-0.0100818
-0.00959497
-0.0094151
-0.00945645
-0.00938684
-0.00945038
-0.00940547
-0.00945257
-0.00624014
-0.00638723
-0.00768483
-0.00725695
-0.00702631
-0.0072844
-0.00744794
-0.00716993
-0.00661691
-0.00732495
-0.00682657
-0.00735549
-0.00702655
-0.00712434
-0.00417701
-0.00481384
-0.00501349
-0.00527615
-0.00452906
-0.00497858
-0.00408756
-0.00510876
-0.00520841
-0.00553724
-0.00558321
-0.00396986
-0.0050944
-0.00522004
-0.00507381
-0.00436658
-0.0052523
-0.000166274
-0.000401528
-0.000285953
-4.95187e-05
-0.000182502
-0.000294364
-0.000294453
-0.000275656
-0.000169216
-0.000285541
-0.000525639
-0.000599079
-0.000835071
-0.000673595
-0.000211643
-0.000386503
-0.000766199
-0.000727549
-0.000714576
-0.000716051
-0.000356378
-0.000155614
-0.000724004
-0.000137353
-0.000353553
-0.000317111
-0.000521373
-0.000657208
-0.000347459
-0.00046683
-0.00040463
-0.000119594
-0.00015906
-0.000436442
-0.000724046
-0.000346468
-0.000386283
-0.000689698
-0.000212435
-0.000384168
-0.015638
-0.0163755
-0.0188963
-0.0198155
-0.0192402
-0.0201536
-0.0172088
-0.0178883
-0.0180234
-0.0145995
-0.0161079
-0.0168852
-0.0192138
-0.0182947
-0.0189161
-0.0176226
-0.0171803
-0.00162063
-0.00161707
-0.00201056
-0.000722263
-0.00136137
-0.00223454
-0.00249948
-0.000654988
-0.000940371
-0.00189497
-0.00960588
-0.00949706
-0.00965513
-0.00987741
-0.00918707
-0.00914843
-0.00959759
-0.00982871
-0.00985641
-0.00977603
-0.00942826
-0.00918559
-0.0091924
-0.00937916
-0.00921665
-0.00956348
-0.00937377
-0.00957907
-0.0086395
-0.00862512
-0.00872299
-0.00838942
-0.00879281
-0.00846903
-0.00854225
-0.00841808
-0.00813699
-0.00823753
-0.00882055
-0.00890816
-0.00860191
-0.000768114
-0.000482868
-0.000919827
-0.000601213
-0.00101485
-0.00131797
-0.00102075
-0.000384989
-0.000309677
-0.000726795
-0.00116142
-0.00106757
-0.000355701
-0.000348978
-0.00909022
-0.00908609
-0.00933006
-0.00926538
-0.00907065
-0.00918185
-0.00932281
-0.00914481
-0.00915407
-0.00926277
-0.00921727
-0.00940711
-0.00927616
-0.00912568
-0.00959344
-0.0226591
-0.0217071
-0.0212866
-0.0212848
-0.0202147
-0.019836
-0.0243818
-0.0231943
-0.0224485
-0.0233126
-0.023731
-0.0233322
-0.0214045
-0.0201764
-0.0210382
-0.0223905
-0.0219869
-0.0228214
0.0288411
0.0288366
0.0290851
0.0284441
0.0285557
0.028515
0.028623
0.0284469
0.0287597
0.0287391
-0.00975908
-0.00979861
-0.00979632
-0.0100135
-0.00972509
-0.0100104
-0.00970268
-0.0097806
-0.00958906
-0.00967537
-0.00969264
-0.00994305
-0.0100031
-0.00980646
-0.0100322
-0.00968653
-0.00980274
-0.00983545
-0.00963231
-0.00978524
-0.00984026
-0.00981513
-0.0052634
-0.00542221
-0.00557794
-0.00570846
-0.00508872
-0.00485246
-0.0055525
-0.00543461
-0.00512901
-0.00507497
-0.00474463
-0.00479001
-0.00535806
-0.00511873
-0.00478389
-0.00483771
-0.00507808
-0.00503997
0.0304592
0.0314339
0.032678
0.0313725
0.0299899
0.0324437
0.0306034
0.0315471
0.0278776
0.0297853
0.0313415
0.0285341
0.0288453
0.0275884
0.0263316
0.0294506
0.0272828
0.0261394
0.0272056
0.0310653
0.028821
0.0279436
0.025276
0.0306045
0.0313989
0.0328379
0.032295
0.036556
0.0357511
0.0331485
0.035609
0.0290104
0.0280677
0.036474
0.0373733
0.0342125
0.0366342
0.0296136
0.0297303
0.029781
0.0295891
0.0297039
0.0295916
0.0297741
0.0297097
0.0295521
0.0296955
0.0294926
0.0295259
0.0297608
0.0296908
0.0296982
0.0297669
0.0292239
0.0249693
0.024529
0.0268259
0.0279673
0.0298529
0.0279071
0.0280155
0.024265
0.0235671
0.0281588
0.0260878
0.0276015
0.0247745
0.0268209
0.0246599
0.0243844
0.0255468
0.0261089
0.0251111
0.0257923
0.026835
0.0266524
0.0259927
0.0252362
0.0268837
0.0272513
0.0267028
0.0219279
0.0215466
0.0237187
0.0251619
0.0133374
0.0123767
0.0223224
0.0222506
0.0130228
0.0152632
0.0177277
0.0178367
0.0193477
0.016839
0.0145813
0.0124165
0.027731
0.0269008
0.0272581
0.0277756
0.0269753
0.0282956
0.0278912
0.0270925
0.0271031
0.0299229
0.0294967
0.0291656
0.028617
0.0275152
0.0286493
0.0280842
0.0291226
0.0285109
0.0278705
0.0294106
0.00805931
0.00979571
0.00459571
0.00171827
0.00298059
0.00567509
0.0128626
0.00473986
0.00864532
0.00860332
0.00234586
0.00736258
0.00806282
0.00497485
0.00795288
0.0145245
0.0146357
0.0130534
0.0110705
0.00941781
0.0184182
0.0155616
0.0155442
0.0127097
0.0167303
0.0168392
0.0167908
0.0140837
0.0126828
0.0137962
0.0139477
0.0146539
0.0150181
0.0287704
0.028826
0.0286102
0.0285061
0.0292083
0.0291868
0.0287075
0.0285458
0.0293715
0.0293702
0.0287746
0.0290726
0.0293503
0.0293121
0.0291972
-0.0118982
-0.0115924
-0.0121736
-0.0121808
-0.0127244
-0.0117726
-0.0118542
-0.0135121
-0.013125
0.0315013
0.0306288
0.0296332
0.029593
0.0303092
0.0297309
0.0319441
0.0293899
0.0331695
0.0317446
0.0295411
0.0313936
0.0320159
0.032345
0.0328307
0.028645
0.0289506
0.0307177
0.0328498
0.0315238
0.0291189
0.029988
0.00328808
0.00398709
0.00344224
0.00138234
0.00243261
0.0034341
0.000394786
0.00169579
0.001983
-6.3725e-05
0.00109231
-0.00107085
-8.33844e-05
-0.00115571
-0.00160387
-0.000927981
0.000286668
0.00191335
-0.0019212
0.000776112
0.0276186
0.0259821
0.0306188
0.0262386
0.0280773
0.0346833
0.0319965
0.0281324
0.0319195
0.0272788
0.0296752
0.0354956
0.0333178
0.0340884
0.0375565
0.0309086
0.0303414
0.0285688
0.0330582
0.0269897
0.0301821
0.0279719
0.0316773
0.0361769
0.037083
0.0350888
-0.00868867
-0.00956871
-0.00899433
-0.00863712
-0.00901674
-0.00939856
-0.00926746
-0.00894917
-0.00982966
-0.00886696
-0.00898935
-0.00931683
-0.00871928
-0.00868509
-0.00859709
-0.00884498
-0.00876379
-0.00932819
-0.00911572
-0.00859674
-0.00868491
-0.00869049
-0.0086268
-0.0088374
-0.00865426
-0.00885234
-0.00752601
-0.00728547
-0.00797832
-0.00845838
-0.00745424
-0.00765603
-0.00741949
-0.0066384
-0.00842273
-0.00592666
-0.00824209
-0.00711904
-0.00665204
-0.00721473
-0.00802676
-0.00807783
-0.00763712
-0.00734157
0.0101394
0.00966963
0.00633811
0.00816678
0.00691763
0.00504165
0.00175883
0.00618777
0.00646471
0.00415182
-0.000546592
0.00299974
0.00445956
0.0248947
0.0256913
0.0260313
0.0246797
0.0263524
0.0261234
0.026529
0.0256809
0.0257993
0.0248197
0.0249698
0.026867
0.026255
-0.0128221
-0.0126895
-0.0136143
-0.0130702
-0.0131238
-0.0137431
-0.0151148
-0.0145506
-0.0160603
-0.0138034
-0.0140219
-0.0137104
-0.0150638
-0.0113541
-0.00994325
-0.00978239
-0.0102268
-0.0104024
-0.0109481
-0.0108495
-0.0110887
-0.00981651
-0.00982668
-0.0104509
-0.00982997
-0.0094256
-0.00986622
-0.0098864
-0.00879617
-0.00858823
-0.008707
-0.00864439
-0.00863486
-0.00865457
-0.00856286
-0.00862734
-0.00842521
-0.00869808
-0.00856369
-0.00880587
-0.00858327
-0.00865583
-0.00839044
-0.00840748
-0.0101282
-0.00979705
-0.00984503
-0.00970358
-0.00974996
-0.0096547
-0.00968783
-0.0100056
-0.00974284
-0.00965464
-0.00983675
-0.00980687
-0.00980435
-0.010322
-0.00693147
-0.00871855
-0.00897874
-0.00674495
-0.00827818
-0.00852452
-0.00917805
-0.00657361
-0.00646394
-0.00732722
-0.00737578
0.0224011
0.0239406
0.0230445
0.0241982
0.0234494
0.0243138
0.0234342
0.0226938
0.0238948
0.0229872
0.0242922
0.0221666
0.0237088
0.0319404
0.0348391
0.0372746
0.0455537
0.0434308
0.0319208
0.0491443
0.0482958
0.0354067
0.04097
0.0335189
0.0356391
0.0441828
0.0481245
0.0508562
0.0389809
0.0408154
0.0377326
0.0473692
0.0453548
0.0434968
0.0405545
0.0329102
0.0330198
0.0328175
0.0315908
0.0313797
0.0300873
0.0305451
0.0308622
0.0303045
0.0292251
0.0293429
0.0194681
0.0187949
0.0185678
0.0181228
0.0205617
0.0200595
0.0184484
0.0198137
0.0190407
0.0181578
0.0173567
0.0175845
0.0192557
0.0206948
0.0208823
0.018188
0.0176306
0.0198202
0.0170896
0.0311301
0.0314152
0.0313086
0.0313068
0.0320469
0.031874
0.0316634
0.031504
0.0314989
0.0319037
0.032653
0.0323713
0.032801
-0.011666
-0.00734693
-0.0046163
-0.00852012
-0.00670863
-0.00215817
-0.00228133
-0.00216958
-0.00103068
-0.00524896
-0.00292805
-0.0116118
-0.0149524
-0.0055745
-0.00242932
-0.0090186
-0.00627779
-0.0150043
-0.00972409
-0.015633
-0.00860235
-0.00874529
-0.00854195
-0.00881064
-0.00881192
-0.00844226
-0.00864304
-0.00877178
-0.00907141
-0.00878996
-0.00874417
-0.00908529
-0.00887795
-0.00869105
-0.00878627
-0.00874779
-0.00869712
-0.00837685
-0.00882128
-0.00927189
-0.0102029
-0.00888285
-0.00837953
-0.00854942
-0.00976142
-0.00905638
-0.00923684
-0.00825443
-0.00903684
-0.0100943
-0.0116211
-0.0093048
-0.00896701
-0.00796736
-0.00645513
-0.00835056
-0.007652
-0.00674803
-0.00837996
-0.00936441
-0.00749043
-0.00626881
-0.00734665
-0.00630435
-0.0077189
-0.00668827
-0.00362367
-0.00415333
-0.00442354
-0.00430025
-0.00471402
-0.0115643
-0.0135675
-0.0124099
-0.0137691
-0.0181321
-0.0117095
-0.0153437
-0.0180102
-0.0175369
-0.0220292
-0.0230057
-0.0195629
-0.0195066
-0.0198983
-0.0156594
-0.00267043
-0.00308704
-0.00335456
-0.00434799
-0.00347919
-0.00330833
-0.00364722
-0.00302355
-0.00352342
-0.00212389
-0.0020716
-0.00343775
-0.00349733
-0.00287014
-0.00121998
-0.00228441
-0.00310765
-0.0023989
0.0134431
0.0112583
0.00650214
0.0140349
-0.000600188
-0.0115637
0.0135418
0.00312152
0.0127541
0.00652786
0.00739888
-0.0245669
-0.0183512
-0.0375495
0.00034437
-0.000242546
-0.00277159
-0.0145744
-0.00618637
0.000218757
-0.0196975
-0.0192585
-0.0193504
-0.0178217
-0.0182055
-0.0170768
-0.0169432
-0.0167414
-0.0181551
-0.0183475
-0.0163559
-0.0170113
-0.0175218
-0.0166131
-0.0125125
-0.0109181
-0.0116926
-0.0132914
-0.00920764
-0.00992462
-0.0112147
-0.013289
-0.011006
-0.0106734
-0.0132914
-0.0121162
-0.00848823
-0.00922849
-0.00838515
-0.00899662
-0.00902458
-0.00933325
-0.00779368
-0.00888769
-0.0079821
-0.0106888
-0.0140224
-0.00944077
-0.0153013
-0.0134144
-0.0153758
-0.0147749
-0.00529815
-0.00584105
-0.00559679
-0.00774806
-0.00972163
-0.0101444
-0.0118998
-0.0120901
-0.00672159
-0.00949432
-0.00693473
-0.0070844
-0.0048146
-0.00653802
-0.00666295
-0.00612766
-0.00315901
-0.00322661
-0.00431594
-0.00130598
-0.00135918
-0.0045554
-0.00669169
-0.0036985
-0.00260651
-0.00130779
-0.000792765
-0.00513382
-0.00264064
-0.00298103
-0.00447043
-0.00318989
0.0116611
0.0122668
0.00936773
0.00971948
0.012376
0.0104765
0.01004
0.0106729
0.0112156
0.0106211
0.00959324
0.010172
0.0102791
0.00936286
0.0121909
-0.0131571
-0.00973502