/*--------------------------------*- C++ -*----------------------------------*\
  =========                 |
  \\      /  F ield         | OpenFOAM: The Open Source CFD Toolbox
   \\    /   O peration     | Website:  https://openfoam.org
    \\  /    A nd           | Version:  10
     \\/     M anipulation  |
\*---------------------------------------------------------------------------*/
FoamFile
{
    format      ascii;
    class       volScalarField;
    location    "8";
    object      k;
}
// * * * * * * * * * * * * * * * * * * * * * * * * * * * * * * * * * * * * * //

dimensions      [0 2 -2 0 0 0 0];

internalField   nonuniform List<scalar> 
75457
(
2.03592
2.31251
1.41909
0.78327
1.44042
1.53826
1.79474
1.58636
0.475886
0.46152
0.409117
1.2526
1.11433
0.494338
0.0726909
0.0629857
0.0163227
0.0419286
0.053827
0.0142962
0.0264661
0.0240083
0.0716264
0.0690776
0.0444739
0.0839589
0.0812367
0.0515724
0.0596025
0.0555069
0.0429489
0.0690139
0.0732706
0.0392345
0.0370635
0.0461357
0.0400571
0.0815791
0.0742315
0.0480038
0.0556926
0.0467411
0.0423991
0.0375658
0.0626353
0.0150775
0.0089278
0.031092
0.591889
0.18462
0.371829
0.527141
1.23727
0.368218
0.214344
0.233641
0.958734
0.923848
0.792232
1.31195
1.0714
0.660019
0.454845
0.323054
0.0559174
0.330898
0.0903025
0.377045
0.484201
0.909475
0.464488
0.988129
0.363262
0.0287022
0.454063
0.129325
0.136943
2.16346
1.90751
1.21887
1.51609
1.59168
2.23468
1.57119
0.6118
0.588901
0.777139
0.975408
2.29222
1.4515
1.19946
0.885751
1.51789
0.927692
0.904486
0.330717
0.358219
0.39344
1.72022
0.834253
0.794754
1.23514
0.118634
0.00359328
0.0401671
0.0558293
0.187112
0.0405047
1.07593
0.30921
0.375496
0.776796
0.877235
0.704769
0.0673302
0.833842
1.28219
0.456941
0.448086
1.53748
0.0194321
0.0726315
0.0772754
0.186672
0.444345
0.271174
0.862638
0.440549
0.846026
0.0934358
0.169864
0.901063
0.272201
0.585504
0.51833
0.866451
0.360009
0.742237
0.708789
1.30118
0.13412
0.263918
0.458102
0.150757
0.187611
0.649152
0.585791
0.522756
1.22393
0.693701
1.80801
1.10122
0.280417
0.197351
0.607087
0.985565
0.641802
1.35162
0.410306
0.868709
1.35797
0.310362
0.991746
0.00522585
0.00544586
0.00562162
0.00547451
0.0055821
0.00503069
0.00500008
0.00518997
0.00555451
0.00511127
0.00532655
0.00517787
0.00504772
0.682267
0.726006
0.874765
1.12917
0.963737
1.18729
0.697047
0.907405
1.42457
0.52599
0.711742
0.852656
1.34658
2.80533
0.92938
0.530743
0.812164
0.910072
0.616586
1.38934
0.108004
0.247896
0.1886
0.143686
0.0944094
0.57932
0.725687
0.749397
0.481815
0.527942
0.905945
1.50921
1.46467
1.47581
1.18361
1.18676
1.54393
1.70302
1.05643
1.01913
1.76392
1.13495
1.87116
1.83766
1.66242
0.917684
0.944594
1.28396
0.885761
0.954896
1.831
0.89616
0.833077
0.976485
0.233071
0.217788
1.25973
0.664296
0.884268
0.756589
1.12531
0.400396
0.430523
0.459494
0.471838
1.0221
1.19477
0.890908
1.21606
0.945995
0.719437
0.866151
1.13143
1.57222
1.07296
1.22791
0.675185
1.11338
0.702954
0.786779
0.417693
0.231583
0.331423
0.0530654
0.127943
0.150374
0.401661
0.360826
0.8926
1.53501
1.08051
2.01973
1.39792
1.3669
1.57448
1.30557
0.792135
0.821546
0.871047
0.745648
0.947047
0.888591
1.18176
0.852184
1.06319
1.02962
0.965829
0.915339
0.774633
0.847108
0.682906
0.281737
0.320155
0.49816
0.416512
0.473832
0.719617
0.968014
1.06095
1.29904
1.10293
0.923118
0.940517
1.1346
0.958284
0.468157
1.20304
0.247872
0.253754
0.277634
0.180099
0.263255
0.24839
0.605261
0.233175
0.252637
0.293075
0.240695
0.770223
0.873787
0.817912
0.814064
0.537706
0.933147
0.503856
0.313949
0.380364
0.590137
0.19873
0.500013
0.433344
0.449869
0.963111
1.0741
0.588522
0.554101
1.08333
1.25154
0.530099
0.553613
1.15339
1.08306
1.8245
1.06739
1.04812
1.65332
0.613914
0.65133
0.694853
0.616843
0.879784
0.770544
1.02015
0.847618
0.705338
0.481229
0.735309
0.530559
1.04848
1.16672
1.2882
2.2625
0.860941
0.728561
1.37179
1.4648
1.45788
1.39217
0.368553
0.355279
0.429614
0.449701
0.664608
0.546361
1.0669
0.571241
0.615003
0.858011
1.46891
1.04577
0.957938
0.896396
0.972086
0.425241
0.448158
0.451376
0.890362
0.830586
1.23882
1.18903
0.869828
1.07178
0.339679
0.302706
0.771098
0.00403903
0.00425912
0.00376262
0.00374728
0.00420356
0.00431993
0.00398842
0.0042862
0.00410422
0.00424416
0.00378455
0.00374987
0.00380787
0.00389833
0.00377894
0.00384418
0.00365249
0.0037189
0.00391342
0.00393642
0.0038171
0.00358341
0.00354412
0.00352775
0.00390503
0.00384298
0.00374385
0.00354424
0.00348855
0.00369831
0.00374453
0.00388236
0.00390703
0.00368716
0.00370647
0.0038215
0.00378148
0.00374057
0.00378404
0.00387675
0.00387196
0.00373987
0.0038175
0.00375268
0.00375893
0.00371838
0.00378322
0.00388038
0.00401259
0.00373417
0.00386281
0.00386297
0.0038059
0.18469
0.0724817
0.0766107
0.0705771
0.0743857
0.152627
0.064662
0.0762945
0.0533127
0.180279
0.0543021
0.0527796
0.0548671
0.0583871
0.0446156
0.157371
1.46172
0.930088
1.07072
0.943704
0.387981
0.415072
0.853713
0.930194
0.376263
0.370085
2.22724
1.53223
1.57692
1.02046
0.448238
0.0679274
0.0127608
0.0185168
0.0772872
0.0755648
0.0467856
0.0180419
0.017229
0.0173029
0.0219392
0.0135887
0.0440969
0.0728669
0.0715854
0.0807404
0.246477
0.0890646
0.0556216
0.0544532
0.00399509
0.00405234
0.00405676
0.00399168
0.00392432
0.00413258
0.0041557
0.00379828
0.0039279
0.00410655
0.00411031
0.00439215
0.00413628
0.00396901
0.00396684
0.00400386
0.0049117
0.00469642
0.00497708
0.00472266
0.00453154
0.00503079
0.00542406
0.00511182
0.0049623
0.00511795
0.00504717
0.00488363
0.0051184
0.00487108
0.0049631
0.00539008
0.0054078
0.00443895
0.00476447
0.00451799
0.00478017
0.00471649
0.00457014
0.00339619
0.00704101
0.00428784
0.00461406
0.00399657
0.00450104
0.00429337
0.00447907
0.00420788
0.00430004
0.0034534
0.279335
0.203528
0.252247
0.31414
0.194107
0.297775
0.272288
0.305274
0.220487
0.21749
0.237348
0.320021
0.350136
0.274741
0.330993
0.228277
0.328619
0.364859
0.0458653
0.05539
0.0672907
0.0888849
0.02747
0.103537
0.0472302
0.0555678
0.0613754
0.127012
0.0739667
0.0681078
0.0700095
0.0329667
0.0774593
0.0734416
0.0963374
0.0658139
0.106724
0.103316
0.106314
0.0825722
0.0736027
0.102326
0.111368
0.112354
0.0840444
0.055662
0.0586804
0.111472
0.0667627
0.105555
0.00391326
0.00392765
0.00394851
0.00445487
0.00475177
0.003952
0.00379933
0.00433354
0.004174
0.00424261
0.00364305
0.00468201
0.258043
0.163273
0.337173
0.133
0.297645
0.230203
0.266458
0.268909
0.300914
0.0847839
0.0588093
0.0709116
0.0759514
0.0616931
0.0689861
0.0730529
0.00859433
0.0411556
0.00593101
0.0352795
0.100502
0.0816649
0.115057
0.0709832
0.0628044
0.038167
0.0242688
0.00925643
0.0933217
0.0201534
0.0255179
0.0330086
0.00540188
0.00414823
0.0393325
0.00772571
0.0021482
0.0556287
0.0419157
0.0110477
0.000169805
0.00226674
0.000801772
0.00196479
0.00328729
0.00292559
0.00632389
0.0555655
0.050585
0.0505328
0.015549
0.107797
0.0870171
0.0546192
0.163515
0.08416
0.128359
0.0984321
0.0480677
0.0779736
0.0424427
0.13703
0.102183
0.0817044
0.0827269
0.171326
0.152061
0.154313
0.171312
0.145966
0.164793
0.13901
0.120893
0.130465
0.115121
0.119086
0.15079
0.141212
0.125405
0.133112
0.104
0.110589
0.130319
0.214619
0.433966
0.476166
0.0275671
0.0754943
0.340042
0.18531
0.0573579
0.0593945
0.5582
0.369254
1.03844
0.880787
1.22654
1.28089
1.13892
1.10924
1.0452
1.04935
0.866692
0.81119
1.29007
1.38076
1.39539
1.33223
1.36882
1.31252
1.10928
1.05007
1.12937
1.05709
1.11539
0.0351961
0.0268628
0.0856884
0.0599503
0.0692323
0.0296644
0.0525556
0.0517009
0.0485508
0.161234
0.204025
0.264265
0.0257837
0.205916
0.369957
0.153369
0.262805
0.00461591
0.0841861
0.15355
0.364269
0.0817084
0.104809
0.557533
0.434235
0.0910014
0.356774
0.158381
0.57944
0.55764
0.562494
0.807962
0.566764
0.954501
1.083
0.860995
0.742094
0.630434
1.00052
0.878269
0.878195
0.0549121
0.0660061
0.0175036
0.0224407
0.0184426
0.0172639
0.0293648
0.0369791
0.117055
0.042701
0.0728487
0.0803035
0.0224685
0.0202593
0.081099
0.0417139
0.0760568
0.0736176
0.0561918
0.103031
0.121636
0.0467581
0.0577201
0.0198666
0.0960408
0.0281286
0.0201838
0.115468
0.105063
0.0181165
0.0674817
0.085382
0.0614794
0.0569198
0.114603
0.02674
0.0458229
0.168972
0.0916173
0.0323911
0.00623029
0.0128423
0.107339
0.189492
0.0580275
0.0656629
0.122927
0.168032
0.060956
0.067734
0.0901318
0.0513308
0.0522791
0.107209
0.120448
0.164075
0.056537
0.0570477
0.0853108
0.167923
0.0768146
0.0595441
0.0960518
0.0612276
0.258997
0.281905
0.0207499
0.0433828
0.0651747
0.0925903
0.0412627
0.0496187
0.0916325
0.220527
0.309621
0.243154
0.0674596
0.0860175
0.0435998
0.158398
0.114612
0.0229629
0.0219147
0.019712
0.0209255
0.0224518
0.0182206
0.0147665
0.0160209
0.0152651
0.0186942
0.0195412
0.0124785
0.0192738
0.0212417
0.00379226
0.00376719
0.00391284
0.0038616
0.00392379
0.00385683
0.00402701
0.00390052
0.00418458
0.00430583
0.127198
0.0846306
0.137427
0.185867
0.054797
0.0479662
0.173718
0.254619
0.068872
0.148405
0.140881
0.143041
0.177175
0.0465422
0.16955
0.140046
0.029972
0.587207
0.647026
0.602165
1.01114
0.910703
0.72427
0.958013
0.889368
0.91744
0.980464
0.550173
0.552351
0.702094
0.622593
0.828911
0.878034
0.831815
0.56987
0.634787
0.65522
0.00223123
0.00365824
0.003684
0.00208659
0.0049586
0.0296231
0.0342445
0.00558528
0.00375433
0.00343047
0.0323878
0.0405965
0.00198658
0.0184376
0.0247843
0.0472301
1.79418
1.9349
2.20866
2.14134
1.56488
2.01277
1.67648
2.34877
2.78124
2.48841
1.74773
1.95332
2.33428
0.0828113
0.114609
0.101183
0.0710136
0.0616356
0.0673767
0.106364
0.091866
0.072365
0.0737214
0.0445741
0.0728576
0.0421617
0.118043
0.0963661
0.0547664
0.123295
0.111122
0.0507307
0.046059
0.0434631
0.0538711
0.00169786
0.000136117
0.00282075
0.00141642
0.00147493
0.0264693
0.106219
0.00416172
0.0381823
0.172615
0.189815
0.112383
0.106204
0.128137
0.0311465
0.106553
0.13635
0.106299
0.0385381
0.0382931
0.0945973
0.0178228
0.0522003
0.0428445
0.033059
0.033113
0.0529498
0.028177
0.521306
0.614732
0.821745
0.668805
0.575512
0.621434
0.571252
0.597259
0.88641
0.691519
0.885959
0.862009
0.959617
1.0132
0.887656
0.861328
0.0695597
0.163543
0.130899
0.0733226
0.0111959
0.020175
0.0256539
0.0112597
0.0106414
0.0101241
0.0910797
0.0614039
0.018223
0.0491331
0.0300706
0.0226076
1.12819
1.65505
1.13931
1.50666
1.26488
1.82928
0.53768
0.728433
0.476131
0.50978
0.531337
0.837489
1.47211
1.7961
1.176
0.8228
1.01892
1.02357
0.840543
1.74498
0.0136031
0.00925097
0.00735365
0.00650996
0.00788803
0.00584519
0.00657018
0.00671061
0.00664616
0.013637
0.0166187
0.00881494
0.00866489
0.00588089
0.015619
0.0596684
0.0713055
0.116459
0.162468
0.223308
0.219531
0.271572
0.106664
0.36959
0.494215
0.430035
0.207607
0.559529
0.572191
0.0243561
0.0429937
0.0176139
0.0226786
0.0204089
0.0304513
0.0129084
0.00686128
0.0321086
0.00717739
0.0174609
0.00652174
0.00993357
0.00550544
0.00504649
0.00566253
0.0738455
0.0802407
0.0629182
0.0632682
0.22213
0.229056
0.0413701
0.119323
0.114784
0.0513554
0.219577
0.173707
0.263661
0.163851
0.175739
0.237505
0.24368
0.28192
0.283839
0.0133388
0.0524576
0.0212098
0.0294727
0.014951
0.126257
0.0352905
0.0625849
0.0762992
0.056188
0.0133911
0.0184765
0.0203414
0.0163286
0.0841404
0.0679844
0.0466519
0.119347
0.0807849
0.0981636
0.0365483
0.0570717
0.124172
0.0760738
0.0588658
0.0159071
0.0118624
0.0105063
0.078274
0.00434063
0.00648725
0.0253449
0.0229056
0.0126593
0.0110055
0.0259963
0.0288314
0.0130176
0.0249874
0.00903011
0.00731436
0.00731708
0.00807175
0.0307208
0.00851975
0.0230936
0.0207247
0.0165248
0.0310031
0.0242365
0.0249118
0.0616537
0.0229985
0.0650338
0.0716505
0.055777
0.0394912
0.529737
1.13761
1.65103
0.882644
1.278
0.646251
0.793615
1.20409
1.3934
0.475223
0.938228
1.10305
1.5974
0.635213
1.09131
0.308981
0.808612
0.455349
0.404256
0.726988
0.86221
0.666726
0.39627
0.355812
0.351326
1.20626
1.21072
1.21392
1.3577
0.347044
0.356482
0.342783
0.312517
0.338222
0.614138
0.641283
0.560447
0.0434001
0.087139
0.0247813
0.0446555
0.0278815
0.0198034
0.0131375
0.0290253
0.0182324
0.0162053
0.0136715
0.0131038
0.0139808
0.0145697
0.0164695
0.0108531
0.436363
0.466726
0.481224
0.53602
0.603555
0.566014
0.529868
0.493579
0.464072
0.848006
0.789317
0.909608
0.197443
1.1782
1.34992
0.969264
1.13
0.283929
0.0693255
0.928299
0.0605721
0.975797
1.25856
0.398354
0.760197
0.293622
1.12445
1.44252
1.06484
0.125849
0.346931
0.437476
1.59293
0.359257
0.737748
0.818725
1.34537
0.387342
0.580089
0.567052
1.08397
0.319082
0.481279
1.56252
0.360456
0.723939
0.385029
0.914257
1.36516
0.741573
0.443051
1.08338
1.19533
0.366192
0.227798
0.852531
0.22897
0.817226
1.34977
0.812707
0.219107
0.261042
1.24301
0.822102
0.268182
0.236503
0.32768
0.253206
0.108391
0.170564
0.135759
0.266781
0.280564
0.0714315
0.0857947
0.0905171
0.215505
0.325822
0.136638
0.167814
0.0864735
0.223258
0.241084
0.0830856
0.0785562
0.0442385
0.0364896
0.0387681
0.0449289
0.120329
0.0681778
0.0445448
0.0682438
0.0443046
0.414182
0.697509
0.287048
0.0108594
0.0104606
0.0100574
0.0103678
0.011167
0.00932791
0.0321557
0.0392087
0.0609496
0.031373
0.00161505
0.0128546
0.0141128
0.00848568
0.0274936
0.0264952
0.0782707
0.0303582
0.006592
0.00740074
0.641637
0.680056
0.750538
0.581599
0.850665
0.856678
0.893823
0.768629
0.504609
0.632507
0.696332
0.662148
0.657329
0.742191
0.55967
0.630905
0.541952
0.511493
0.515907
0.0307409
0.0127332
0.0196889
0.0147708
0.363717
0.544479
0.166381
0.270933
0.0397177
0.0203464
0.277991
0.0778391
0.0245147
0.169604
0.47334
0.163653
0.0982829
0.24162
0.108253
0.236179
0.0863018
0.0785787
0.15077
0.091502
0.141715
0.807702
1.02666
0.496375
0.532851
0.393965
0.258259
0.179858
0.283067
0.22985
0.60622
0.243399
0.136831
0.0918862
0.219563
0.647432
0.724561
0.797941
0.720541
0.667141
0.690824
0.846882
0.849328
0.842824
0.797144
0.773033
0.752416
0.736772
0.802896
0.708454
0.666114
0.0235303
0.0222433
0.024754
0.0299196
0.0303873
0.0269068
0.0503784
0.041881
0.0448331
0.0276891
0.0314428
0.030056
0.0454808
0.0351458
0.0358003
0.034514
0.0417256
0.039145
0.0394238
0.0304048
0.725359
1.00136
0.598847
1.00746
0.459252
0.521992
0.185415
0.325116
1.11493
0.653165
1.12804
0.93603
0.242307
0.232749
1.14496
0.836827
1.12207
0.731443
1.41145
0.481769
0.0219386
0.0445954
0.0551537
0.0549581
0.0372827
0.0281697
0.0250036
0.0391194
0.0490237
0.0417542
0.0425942
0.0380381
0.0658519
0.031647
0.0840455
0.0765686
0.0784723
0.496254
1.06227
0.964602
1.83887
0.54554
0.622408
0.790554
0.84788
2.78585
0.806032
0.4872
1.54779
0.0119945
0.0104994
0.00902898
0.00414379
0.0114676
0.00835907
0.00771296
0.00526879
0.00495516
0.0136166
0.0088419
0.00482998
0.0569918
0.000274205
0.0196581
0.00104038
0.0309989
0.0975763
0.00110661
0.0563014
0.0805224
0.164564
0.149103
0.00718265
0.0119036
0.248004
0.176561
0.262868
0.00907609
0.0213284
0.035334
0.00793512
0.0171504
0.0203818
0.007884
0.0717927
0.0212367
0.030251
0.00999082
0.0526833
0.14836
0.0453919
0.0661946
0.0955887
0.360168
0.0135822
0.0137549
0.263753
0.474511
0.0366165
0.023727
0.0969252
0.24188
0.0645255
0.238275
0.244444
0.20007
0.105862
0.145085
0.215593
0.152153
0.153567
0.0779261
0.0193448
0.122841
0.0668712
0.0618739
0.0209196
0.0161573
0.0261872
0.0322372
0.057313
0.00209312
0.0043078
0.000539401
0.0030102
0.0775258
0.0765954
0.00937647
0.00107188
0.00582189
0.0412466
0.0739628
0.0723033
0.0120849
0.00306691
0.00520166
0.133852
0.0767137
0.511237
0.358484
0.12458
0.485284
0.327817
0.217904
0.103981
0.0097857
0.00133839
0.0160558
0.0534811
0.00511001
0.0209721
0.0213608
0.00743685
0.0268979
0.0188781
0.0204806
0.024658
0.0248927
0.0106146
0.0110049
0.0227798
0.0274592
0.0257759
0.0207281
0.0176747
0.0261304
0.0200782
0.107383
0.0634753
0.0622201
0.135832
0.0589564
0.446748
1.03936
0.0788174
0.29058
0.360311
0.170955
0.328235
0.317545
0.102813
0.67513
0.855839
1.239
0.937493
0.500813
0.388312
0.229088
0.0670532
0.0837275
0.381915
0.347713
0.154192
0.148529
0.145874
0.0814092
0.100868
0.156814
0.0947367
0.0822279
0.124344
0.0722666
0.0466957
0.128676
0.195363
0.1261
0.123555
0.299138
0.315958
0.323738
0.32067
0.324144
0.306312
0.295974
0.296894
0.342968
0.312251
0.316482
0.307288
0.332742
0.292059
0.290756
0.2991
0.47949
0.368607
0.410195
0.512303
0.490951
0.415212
0.920732
0.742927
0.57019
0.79086
1.16313
0.726591
0.434561
0.816114
0.445094
0.755856
0.791654
1.49938
1.57044
0.869459
1.41927
1.67452
1.0881
1.54374
1.06943
0.727492
0.499054
0.358301
1.39941
0.991888
1.01382
0.197031
0.336705
1.20313
0.272348
0.992206
0.876937
0.251681
0.226062
0.192965
0.810483
0.912644
0.92173
0.905703
0.887825
0.92427
0.949331
0.871793
0.945575
0.904321
0.913249
0.944081
0.913715
0.828872
0.862419
0.74882
0.994744
0.911237
0.903781
0.764825
0.848665
0.923339
0.876107
0.636067
0.206325
0.234647
0.265003
0.734378
0.539473
0.961632
0.648168
0.568027
0.211819
0.432059
0.75517
0.536997
1.14086
1.072
0.431828
0.462195
0.508472
1.48197
0.896026
0.944583
0.642726
0.398263
0.967378
1.07431
0.459724
0.342105
0.254186
0.941101
0.80447
1.02852
1.31494
0.598662
0.886346
0.890323
0.260835
0.667013
0.747691
0.290309
0.282239
1.00128
0.799946
0.814802
1.14861
0.814351
0.859874
0.312256
0.28772
0.664719
0.319505
0.480986
0.515838
0.490074
0.505761
0.499792
0.444852
0.438494
0.50972
0.436375
0.402661
0.337671
0.341895
0.411886
0.335513
0.324966
0.377197
0.378456
0.0625169
0.0629877
0.0817183
0.0786748
0.0766344
0.093665
0.0576237
0.0538068
0.0680118
0.0653243
0.0601451
0.110147
0.0728278
0.0843895
0.0760286
0.0974515
0.0697242
0.0860492
0.0798326
0.122201
0.103853
0.0891099
0.0501451
0.0404534
0.0351934
0.0364001
0.0273741
0.0156681
0.0131148
0.0275385
0.0275356
0.0130502
0.0119619
0.0201227
0.0176501
0.0102075
0.0224964
0.0127471
0.0168812
0.0187999
1.12114
0.993366
1.0508
1.17871
0.984777
1.1334
1.549
0.935411
1.09054
1.20522
0.874675
0.905999
1.02334
0.932417
2.26017
1.17868
1.42593
0.121947
0.0209937
0.135395
0.673162
0.541236
0.0270608
0.0893947
0.0804971
0.0117413
0.260967
0.365219
0.632961
0.132589
0.126034
0.445477
0.649506
0.0797083
0.086526
0.089845
0.0897974
0.122583
0.177254
0.0911921
0.893557
0.719023
0.139994
0.124889
0.2637
0.48016
0.770225
0.513888
0.606698
0.621775
0.767695
1.21283
1.61126
1.02729
1.47726
0.320957
0.630713
0.288883
0.0398239
0.0354925
0.0400855
0.0329556
0.0169226
0.0325972
0.0242009
0.0211396
0.0246422
0.027255
0.0264923
0.0253555
0.0222453
0.026973
0.133705
0.163594
0.0941388
0.103377
0.226663
0.0887747
0.101329
0.227901
0.337791
0.257442
0.396657
0.163074
0.151627
0.24022
0.0714505
0.535706
0.469776
0.70557
1.05002
0.632312
0.988772
1.1198
1.1714
0.794985
0.59695
1.14063
1.08996
0.886579
1.23253
1.07823
0.930907
1.09553
1.09736
0.0294445
0.0410793
0.0249022
0.024294
0.0273498
0.0239122
0.028235
0.0222443
0.0220737
0.0174714
0.925089
0.910584
0.660943
1.12066
0.232056
0.192352
0.142733
0.289531
0.527571
0.646358
0.896855
0.927357
0.764295
0.172788
0.191557
0.067024
0.589057
0.816704
0.178332
0.184659
0.155709
0.186609
0.334571
0.271841
0.403601
0.273951
0.344513
0.47387
0.288398
0.501619
0.328852
0.423674
0.473038
0.63729
0.30074
0.434255
0.353011
0.276402
0.271686
0.319318
0.00696059
0.0068523
0.00651756
0.00699272
0.00662802
0.00632968
0.00670341
0.0065702
0.00614375
0.00644708
0.00627087
0.00652467
0.00673613
0.0065446
0.00627585
0.00601539
0.00612407
0.00591085
0.00625639
0.930855
1.01323
0.730295
0.871984
0.735818
0.742407
0.855133
0.66206
0.718431
0.650071
0.903758
0.987125
0.999333
0.885575
0.751843
0.731543
0.860704
0.921418
0.0277388
0.0289373
0.0242731
0.0220799
0.0370026
0.0310507
0.0358738
0.0302534
0.0280217
0.0471939
0.0354756
0.0368815
0.0370077
0.0444473
0.0597971
0.057146
0.00401391
0.00411578
0.00410547
0.00403088
0.00406339
0.00400917
0.00399011
0.00394559
0.00397397
0.0039644
0.0039739
0.00392668
0.00398293
0.0046021
0.00456582
0.0046863
0.00467144
0.00460433
0.00447913
0.00496191
0.00471662
0.00508785
0.00476377
0.00488381
0.00486741
0.00479946
0.00495163
0.00464343
0.00426808
0.00485238
0.00404375
0.00447957
0.00466778
0.00136237
0.00407523
0.00427216
0.00445399
0.00443676
0.00455078
0.00370229
0.00430953
0.00425811
0.00434294
0.00351492
0.0088275
0.00882187
0.00860647
0.00800627
0.00813437
0.00846568
0.00787331
0.0079161
0.00823743
0.00830565
0.00998243
0.00981191
0.00840045
0.00803004
0.00826316
0.00832445
0.009765
0.0086758
0.00888147
0.00868465
0.674858
0.655988
0.610618
0.416347
0.543918
0.502389
0.668975
0.577922
0.664194
0.324757
0.348767
0.606069
0.490761
0.573077
0.656838
0.909672
0.588801
0.726705
0.822776
0.890115
0.998022
0.70168
0.83514
0.930362
0.834019
1.07261
1.19419
1.01432
0.543305
0.480863
0.547377
1.04331
1.02953
0.0116742
0.0108955
0.0109299
0.00961124
0.0124167
0.0110878
0.00963197
0.00949947
0.0102601
0.0109201
0.0088012
0.00872487
0.00858612
0.00924696
0.00975673
0.185127
0.123282
0.11047
0.105116
0.220924
0.147191
0.176125
0.21521
0.243923
0.00809146
0.00850727
0.00748797
0.00750927
0.00817334
0.00736374
0.00727695
0.00771108
0.00703294
0.00679403
0.00683646
0.00668152
0.00702937
0.00786264
0.00735292
0.00685333
0.00691299
0.007152
0.00781426
0.00818413
0.00696803
0.00716842
0.00275255
0.00392581
0.00244186
0.00287778
0.00397938
0.00721124
0.00326631
0.00261762
0.00217062
0.00278536
0.00239914
0.00280343
0.00320764
0.00193256
0.00248327
0.00278836
0.00255276
0.00586715
0.00318042
0.00810863
0.00407962
0.00399502
0.0038394
0.00422437
0.00480659
0.00419232
0.00445011
0.00469078
0.00428968
0.00400698
0.003867
0.00373991
0.0037661
0.00428108
0.00418335
0.00459041
0.00444562
0.00439464
0.00411296
0.00428269
0.00405544
0.00465678
0.00377329
0.00407898
0.00431753
0.00371904
0.0180483
0.0348119
0.0301296
0.0226934
0.0067503
0.0127449
0.00112147
0.00184058
0.0277775
0.00439492
0.0290111
0.018851
0.0153969
0.00244628
0.00363173
0.0113303
0.00411095
0.00547493
0.00221548
0.00398384
0.00449835
0.00500336
0.00401675
0.0107998
0.00436484
0.00574805
0.00690849
0.00734917
0.00697312
0.00737325
0.00699214
0.00568456
0.00573397
0.0239148
0.0117482
0.0150694
0.0186221
0.00912858
0.0120906
0.0107411
0.0106181
0.00950799
0.0121296
0.00927499
0.00374564
0.00382497
0.00429841
0.00375412
0.00369098
0.00456817
0.00399577
0.0036966
0.00364722
0.00381489
0.00459207
0.00370401
0.0034981
0.00547798
0.00600494
0.00560018
0.00507078
0.00559511
0.00597912
0.00641754
0.00578344
0.00553822
0.00558185
0.00549951
0.00601393
0.00569692
0.198082
0.129911
0.170378
0.193332
0.160513
0.133385
0.157307
0.166663
0.169849
0.224961
0.229234
0.201537
0.223057
0.0144223
0.00872267
0.0104699
0.0082685
0.00761706
0.0141836
0.00467983
0.0166557
0.00864457
0.0075156
0.00770509
0.00576938
0.00454585
0.00346285
0.00727835
0.0124324
0.00914302
0.0179769
0.0146103
0.0238288
0.00925174
0.00443497
0.038852
0.0313714
0.0838633
0.0196859
0.0353474
0.0165369
0.0107597
0.029581
0.0146164
0.0159879
0.0210321
0.0125218
0.019255
0.0137826
0.0291618
0.0150416
0.00999112
0.0107799
0.0258574
0.013269
0.0117443
0.013288
0.0167616
0.624769
0.72065
0.64124
0.438328
0.586391
0.552508
0.685593
0.602849
0.550601
0.617671
0.659475
0.00397475
0.00385981
0.00411199
0.00428566
0.00441862
0.00406134
0.00426487
0.0041112
0.00429607
0.00430495
0.00407372
0.00409235
0.00417528
0.00264885
0.00839729
0.00249376
0.0387179
0.00297753
0.00631376
0.00365365
0.00432075
0.00635501
0.00801831
0.00448807
0.0054266
0.00582102
0.00503325
0.0105449
0.00426028
0.00520255
0.00529012
0.00854117
0.00450911
0.00483855
0.00480777
0.00357506
0.00383385
0.00307487
0.00216776
0.00468474
0.0033612
0.0034537
0.00455957
0.00348629
0.00377532
0.00397346
0.00379646
0.00387428
0.00353123
0.00335624
0.00378958
0.00385943
0.00396207
0.00392631
0.00424988
0.00418432
0.00403108
0.00394292
0.00396716
0.00400275
0.00401081
0.00395263
0.00452041
0.00412431
0.0041129
0.0158829
0.0146091
0.0185489
0.0129923
0.0132512
0.017145
0.0186965
0.0151643
0.0173623
0.0161058
0.0132899
0.0174593
0.0142807
0.0004591
0.00426447
0.00419095
0.00226647
0.00309662
0.00352491
0.00334875
0.00402221
0.00369439
0.00358257
0.00357631
0.00240399
0.00167734
0.00350117
0.00385786
0.00264843
0.00494254
0.00272031
0.00782946
0.00865017
0.00309847
0.00657824
0.0113446
0.00631748
0.00627845
0.0175599
0.0137559
0.0107618
0.017989
0.0255909
0.0191087
0.0228153
0.0302822
0.0167837
0.0187625
0.0224541
0.0257256
0.0180766
0.0254901
0.142223
0.56696
0.147979
0.224897
0.170958
0.372166
0.0577856
0.0655038
0.397147
0.0600789
0.146894
0.570023
0.183431
0.0887262
0.174223
0.124379
0.0449746
0.171434
0.216793
0.0680916
0.287231
0.150164
0.0810534
0.0485531
0.16411
0.240881
0.258456
0.0076187
0.0186863
0.0201746
2.41984e-05
0.007061
0.749702
0.235341
0.648742
0.271055
1.27937
0.141514
1.2425
2.50717
1.7794
1.01634
1.86532
2.44244
0.948236
1.57362
0.369671
0.807222
0.67041
0.447004
0.536849
0.509696
0.239749
0.314319
0.729887
0.572413
0.225678
0.197777
0.570818
0.547047
0.229242
0.205343
0.361004
0.387174
0.316368
0.0437464
0.0777506
0.12707
0.116616
0.072264
0.131119
0.0530355
0.188211
0.0189494
0.0405266
0.330595
0.502146
0.326542
0.408672
0.230026
0.091948
0.113135
0.14586
0.372897
0.104566
0.322798
0.382802
0.199532
0.176873
0.198356
0.138782
0.166103
0.276162
0.493384
0.415976
0.0769125
0.277436
0.465691
0.284745
0.0443516
0.00192957
0.0174558
0.00380049
0.00266233
0.00291116
0.0327291
0.00633878
0.0255738
0.0323799
0.0414186
0.0292157
0.00404973
0.000459353
0.00335278
0.00663664
0.0135412
0.0133073
0.651906
0.98517
0.895933
0.989661
1.18457
0.878348
1.78063
0.161255
1.49175
0.780873
0.288767
0.157925
0.296316
0.452096
0.901263
0.16947
1.07312
0.792718
0.202858
0.366579
0.0177182
0.206744
0.00293009
0.00297573
0.00249162
0.00248788
0.00287818
0.00281079
0.00287299
0.00269146
0.00281602
0.00309983
0.00279775
0.00275328
0.00257138
0.00259877
0.00260611
0.00263995
0.00264059
0.0028219
0.00266746
0.00258298
0.00794836
0.0251212
0.0785795
0.0042477
0.00132414
0.00301203
0.0855402
0.000615267
0.0187172
0.00360903
0.00367427
0.0264735
0.00353981
0.00357045
0.0258181
1.66201
2.40806
1.65353
3.15863
2.52396
2.82307
3.21448
1.44839
0.0105912
0.00829293
0.0241602
0.0196893
0.020684
0.00583133
0.0098516
0.00571109
0.0209238
0.0149633
0.00620393
0.0149407
0.0813751
0.117824
0.966047
0.362585
0.0881463
0.160087
0.889677
0.669821
0.87432
0.924685
1.30823
0.67644
1.07901
1.70395
0.519147
0.201511
0.205574
0.28427
0.00236186
0.00514422
0.00598459
0.00732863
0.00687078
0.00228758
0.00298855
0.00547891
0.00503636
0.00645758
0.00960801
0.00429487
0.0037536
0.00706305
0.00352404
0.0085732
0.0103206
0.00469999
0.0369762
0.0374881
0.0654852
0.0727243
0.0514843
0.0638447
0.032839
0.0374643
0.0436363
0.0788657
0.0595121
0.0402193
0.0977701
0.0411077
0.0475721
0.0618538
0.0613058
0.0385472
0.0349346
0.0664754
0.0514837
0.0355346
0.0145454
0.0131846
0.0151002
0.0177386
0.0139138
0.0167844
0.0146717
0.0130782
0.0156646
0.0174714
0.0172453
0.0157934
0.0155473
0.0144125
0.0157431
0.0140256
4.14819
3.53418
3.50847
4.54483
3.26259
3.15404
1.79717
1.52477
0.885288
0.896875
0.926594
0.954735
1.9259
0.906383
1.10701
0.925601
0.966376
1.37462
0.0655246
0.128289
0.113357
0.0652795
0.0339237
0.0247543
0.0494319
0.0632957
0.0890801
0.0716161
0.036844
0.0306324
0.0276612
0.031071
0.0576762
0.0381995
0.00834776
0.00363861
0.00287937
0.0028622
0.0041839
0.00301542
0.00303545
0.00311444
0.0023606
0.00221149
0.0113871
0.00856859
0.0153224
0.000747763
0.0027133
0.00227263
0.00245132
0.00274632
0.00628446
0.0121701
0.46456
0.456418
0.374819
0.212041
0.0551887
0.221677
0.0193681
0.169707
0.223601
0.347276
0.0624498
0.0508943
0.122748
0.145653
0.0740885
0.0892061
0.0592565
0.0623429
0.0535726
0.0839575
0.0328028
0.0683239
0.0104874
0.0474154
0.013938
0.0077919
0.0106142
0.00739806
0.245738
0.173422
0.107504
0.207937
0.305059
0.0630472
0.0434723
0.182963
0.204117
0.181309
0.0450844
0.0335784
0.103753
0.130058
0.0804231
0.0558072
0.0892523
0.0367581
0.0338194
0.00707139
0.0412405
0.0401399
0.0447305
0.0430136
0.027659
0.0331686
0.0159175
0.0141727
0.0200742
0.013564
0.0497458
0.048287
0.0242661
0.0394155
0.0353645
0.0377151
0.0512523
0.0186731
0.00442314
0.0687298
0.0531003
0.0191791
0.0206159
0.0477356
0.00105245
0.00166555
0.00315736
0.000337552
0.00184802
0.00197048
0.000774385
0.00228976
0.0106294
0.0291082
0.0188407
0.00593001
0.0057201
0.0125858
0.00902962
0.0113628
0.00759264
0.00835944
0.00320604
0.00492562
0.000637676
0.00926044
0.0090754
0.00498362
0.00465889
0.00497727
0.00500269
0.00459017
0.0047589
0.00505721
0.00485857
0.0048562
0.00482108
0.00495461
0.00472228
0.00457701
0.00478522
0.0120684
0.0124028
0.0167154
0.0162453
0.0171384
0.0172755
0.0119641
0.0106754
0.0142569
0.0151528
0.0123684
0.0153356
0.0132143
0.0138155
0.0456832
0.0523797
0.0552474
0.0605275
0.11847
0.118169
0.131435
0.143119
0.0512243
0.0907731
0.0836814
0.0863384
0.120415
0.0851781
0.0743389
0.376685
0.451668
0.0402165
0.0972682
0.13908
0.391715
0.478275
0.0157816
0.0562787
0.027737
0.0618125
0.135151
0.0352684
0.0561083
0.0265936
0.00730926
0.0386502
1.07077
1.14951
0.829002
0.875625
0.466842
0.471813
0.747086
0.88223
0.439904
0.419039
0.831058
0.489685
0.483117
0.423226
0.386836
0.479908
0.474339
0.477789
0.501729
0.485981
0.484156
0.46005
0.246555
0.250719
0.335765
0.317044
0.329293
0.522695
0.182521
0.224264
0.226969
0.344479
0.157267
0.132634
0.487414
0.407753
0.356501
0.10962
0.168981
0.0823029
0.0646116
0.218313
0.201206
0.205996
0.148211
0.216226
0.0596863
0.154077
0.0675251
0.205795
0.244377
0.151006
0.186196
0.344929
0.347807
0.167161
0.252916
0.345163
0.388091
0.378072
0.308387
0.270467
0.263992
0.262455
0.286878
0.131654
0.177431
0.322348
0.200566
0.190796
0.206161
0.00356239
0.00375711
0.00392203
0.00358747
0.00333899
0.00368791
0.00334211
0.00338072
0.00362445
0.00339469
0.00335902
0.00333588
0.00338416
0.00341146
0.00335957
0.00335365
0.00335702
0.00336363
0.00331144
0.00337298
0.000322752
0.0122085
0.00438896
0.00589629
0.0283905
0.0105594
0.0055847
0.0185837
0.00709428
0.00557629
0.00381002
0.0355366
0.00663222
0.0060896
0.00605961
0.00607263
0.00667441
0.00622714
0.00689509
0.00692839
0.00642522
0.00622719
0.00612881
0.00621557
0.00602109
0.00693343
0.00671477
0.0365003
0.0468605
0.0410028
0.0420592
0.210652
0.179096
0.147248
0.145835
0.1854
0.0545589
0.0786973