/*--------------------------------*- C++ -*----------------------------------*\
  =========                 |
  \\      /  F ield         | OpenFOAM: The Open Source CFD Toolbox
   \\    /   O peration     | Website:  https://openfoam.org
    \\  /    A nd           | Version:  10
     \\/     M anipulation  |
\*---------------------------------------------------------------------------*/
FoamFile
{
    format      ascii;
    class       volScalarField;
    location    "8";
    object      nut;
}
// * * * * * * * * * * * * * * * * * * * * * * * * * * * * * * * * * * * * * //

dimensions      [0 2 -1 0 0 0 0];

internalField   nonuniform List<scalar> 
75457
(
0.0617826
0.0662663
0.0529182
0.0231256
0.0557032
0.0229236
0.0630414
0.020145
0.0275997
0.0271317
0.025545
0.0423569
0.0564915
0.0201388
0.0308248
0.026937
0.0080832
0.0177114
0.0234744
0.00705017
0.0120966
0.0109407
0.0300537
0.0293587
0.0194895
0.0332389
0.0319291
0.025385
0.0279426
0.0273038
0.0223845
0.0313223
0.0323335
0.0205198
0.0197301
0.0234227
0.0209962
0.0341431
0.0324532
0.0250729
0.0277661
0.0245928
0.0224001
0.0145958
0.0224214
0.00650168
0.00398376
0.0122894
0.0963843
0.0539961
0.0767966
0.0937692
0.0891138
0.0790879
0.057484
0.0595065
0.122218
0.105686
0.0997291
0.0150747
0.0892741
0.100093
0.0520459
0.0448649
0.0079001
0.0413464
0.0135043
0.0454562
0.057026
0.011607
0.0566143
0.0126387
0.0467673
0.00370356
0.0562923
0.0180769
0.0180103
0.141657
0.160066
0.165982
0.0902396
0.11352
0.182219
0.187025
0.0855778
0.108919
0.129792
0.111444
0.176587
0.0960728
0.162471
0.144193
0.115947
0.123012
0.159732
0.09832
0.0978651
0.10103
0.0141118
0.122415
0.0950591
0.112483
0.00535894
0.000179584
0.00101399
0.0013571
0.00898486
0.00216622
0.010151
0.042721
0.0669647
0.00808266
0.00827785
0.052566
0.0126638
0.0846755
0.0116464
0.0496238
0.0520663
0.0136771
0.00322144
0.0107614
0.0115446
0.029109
0.0580113
0.0357754
0.00774372
0.0682234
0.0738284
0.0129861
0.0247797
0.130466
0.0415953
0.0965335
0.156189
0.0566367
0.0512224
0.13621
0.12401
0.00989461
0.0304693
0.0490404
0.0690679
0.0348066
0.0412584
0.10889
0.0825059
0.06355
0.0681508
0.137175
0.0111067
0.118066
0.0548883
0.0478287
0.0672535
0.0750369
0.133544
0.00833255
0.0774331
0.124642
0.00834285
0.0579231
0.119425
0.000865637
0.000869928
0.000860887
0.000879561
0.000872659
0.000869783
0.000864765
0.000855792
0.00088269
0.000849603
0.000867388
0.000869704
0.000868254
0.078706
0.0917954
0.115522
0.0969378
0.211111
0.0072998
0.180245
0.0750569
0.00870698
0.101838
0.187071
0.0889328
0.0755393
0.0173647
0.119494
0.0678157
0.0957413
0.0697614
0.0682053
0.013851
0.0268957
0.0538206
0.046356
0.0325699
0.0240687
0.0772135
0.0832754
0.0080099
0.076631
0.0734978
0.0695473
0.129331
0.116723
0.116471
0.106635
0.104285
0.0127899
0.0132737
0.110861
0.092994
0.0144587
0.103226
0.0145741
0.0153152
0.0631661
0.106791
0.0780372
0.00973699
0.0835151
0.0837552
0.0138614
0.0676582
0.106093
0.00737516
0.04609
0.0440143
0.0635172
0.079434
0.0910803
0.105215
0.12101
0.0895424
0.0904017
0.0918108
0.0896548
0.113333
0.00930517
0.124641
0.073665
0.0936683
0.103662
0.118752
0.103941
0.0123548
0.102632
0.00960578
0.0689588
0.0106324
0.0885999
0.00748703
0.0658613
0.0283149
0.041035
0.00937682
0.0332763
0.0366737
0.0899815
0.0586059
0.0900025
0.0172409
0.0899659
0.0154812
0.0156855
0.0690874
0.0118862
0.0776115
0.135645
0.132281
0.087155
0.123308
0.0915471
0.0775127
0.0111133
0.0834376
0.111901
0.00960476
0.0991867
0.00859207
0.103687
0.00790477
0.100428
0.0669455
0.0759817
0.0908704
0.0819586
0.086394
0.144459
0.00897832
0.068318
0.0121723
0.0695121
0.110425
0.110868
0.010545
0.11648
0.0538182
0.017305
0.0652972
0.0595267
0.133071
0.00277112
0.0654715
0.0992699
0.00911747
0.125447
0.0808793
0.0547708
0.0571216
0.0655144
0.0618666
0.0756719
0.0848177
0.0465372
0.0279908
0.0480884
0.0481872
0.0538651
0.0564805
0.00887706
0.111581
0.0947977
0.0881641
0.120971
0.0843156
0.0546184
0.0579558
0.097736
0.00834919
0.0943952
0.0958767
0.13388
0.138436
0.0123408
0.10912
0.126648
0.0112349
0.0800817
0.0682837
0.0370241
0.093035
0.0765609
0.100723
0.0342406
0.105975
0.107522
0.0331778
0.0926538
0.116062
0.114877
0.144834
0.129331
0.0208003
0.104286
0.134278
0.0180248
0.0136284
0.0194314
0.0130326
0.0848641
0.0872757
0.0810869
0.0905895
0.091223
0.0869622
0.0986063
0.0937653
0.0924324
0.100697
0.0132346
0.084659
0.0852842
0.11956
0.00867792
0.0628724
0.0560423
0.0566998
0.0165438
0.0231401
0.0682363
0.286015
0.100679
0.122646
0.0696505
0.0702834
0.0934328
0.000893231
0.000930702
0.000851244
0.000849696
0.000918146
0.000940329
0.00088447
0.000935742
0.000891393
0.00092137
0.000836899
0.00084635
0.000841813
0.000868822
0.000849797
0.000842108
0.000822652
0.000841884
0.000895989
0.000901546
0.000858523
0.000817685
0.000793946
0.000802437
0.000868512
0.000858222
0.000857156
0.000799985
0.0007902
0.000828604
0.000841718
0.000910884
0.000903466
0.00085031
0.000847467
0.000884516
0.000868904
0.00085303
0.000852983
0.000908744
0.000899691
0.000876346
0.000895507
0.000868156
0.0008605
0.000857455
0.000856354
0.000892125
0.000917194
0.000860575
0.00088287
0.000891697
0.000872549
0.0499983
0.0252959
0.026586
0.0245263
0.0259798
0.0435246
0.0224677
0.0268979
0.0194216
0.0477699
0.020113
0.0189354
0.019775
0.0206942
0.016854
0.0464372
0.0460277
0.0296237
0.0583716
0.0299601
0.0301224
0.0314848
0.0520533
0.0301492
0.0300702
0.0283505
0.0459937
0.0347062
0.0519871
0.029955
0.0293218
0.00640159
0.00358173
0.00528159
0.0205183
0.019349
0.0126386
0.00498325
0.00485177
0.00493732
0.00610557
0.0037507
0.0120616
0.0189476
0.0187413
0.0224424
0.0526769
0.0239344
0.0152795
0.0149369
0.000876846
0.000878991
0.000886755
0.00088609
0.000876362
0.000915428
0.000917553
0.000836277
0.000865216
0.000907488
0.00090236
0.000949387
0.000910358
0.000866099
0.000861333
0.000866042
0.000842591
0.00083939
0.000841301
0.000844739
0.000844965
0.000836292
0.000852975
0.000847158
0.000846397
0.000848218
0.000859511
0.000847766
0.000850934
0.000848866
0.000854525
0.00086314
0.000853531
0.000944414
0.000980186
0.000967611
0.00101738
0.00102077
0.000995778
0.00072701
0.00146651
0.000932102
0.00102591
0.000848133
0.000988642
0.000956004
0.00099454
0.000921598
0.00096863
0.00074902
0.0645413
0.0554145
0.0595511
0.0595084
0.0616464
0.0660873
0.0797449
0.0720555
0.066262
0.0663086
0.0595301
0.0610638
0.079366
0.0759034
0.0863421
0.0669145
0.0663275
0.0712379
0.0212937
0.0256002
0.0303393
0.0363338
0.0133763
0.0407843
0.0219352
0.0257356
0.028267
0.0471529
0.0321827
0.0312111
0.031314
0.0157815
0.0311534
0.0299867
0.0363883
0.0269337
0.0389322
0.0380256
0.0395492
0.032478
0.0298395
0.0372754
0.0401175
0.0411168
0.0334976
0.0234108
0.0244356
0.0421169
0.0266191
0.0404639
0.000919181
0.000920025
0.000919788
0.00098683
0.00103903
0.000921318
0.000885849
0.000963266
0.000943697
0.000947723
0.000853552
0.00102904
0.0657898
0.0482877
0.0794227
0.0411926
0.0717879
0.0606374
0.0649965
0.0659696
0.074054
0.0288234
0.0208937
0.0241024
0.0235203
0.0196247
0.0234281
0.0230257
0.00434899
0.0162732
0.00304702
0.0150667
0.0292165
0.0260187
0.0298409
0.0235564
0.0215528
0.015838
0.011059
0.00452396
0.0258464
0.00941019
0.0113254
0.0134077
0.00148329
0.00114556
0.0108024
0.00210135
0.000565024
0.0150765
0.0115177
0.00307349
4.74239e-05
0.00061728
0.000216537
0.000535163
0.000890781
0.00077841
0.00168064
0.0151479
0.0139229
0.0136335
0.00433838
0.0442239
0.0362113
0.0253337
0.059939
0.0354408
0.0486095
0.0383779
0.0212809
0.0325494
0.0200283
0.0526145
0.0409607
0.0343423
0.0345544
0.0632761
0.0592002
0.0597784
0.0630933
0.0578286
0.0623711
0.0577659
0.0506352
0.0527588
0.0497379
0.0515685
0.0576923
0.057664
0.0524968
0.0545403
0.046277
0.0486016
0.0537976
0.0420318
0.0686223
0.0743475
0.00690429
0.0189191
0.0620655
0.0387304
0.0168554
0.0159642
0.0807506
0.0660254
0.139532
0.130429
0.145503
0.0838987
0.109979
0.144686
0.142063
0.120697
0.125835
0.119464
0.145462
0.101869
0.111187
0.143497
0.12122
0.134637
0.134498
0.131511
0.129574
0.0990763
0.127004
0.0129078
0.00972355
0.0286106
0.0209984
0.0242009
0.0111689
0.0188251
0.0184819
0.0175094
0.0464132
0.0531879
0.0611815
0.009922
0.0543084
0.0722989
0.0437955
0.0601374
0.00197301
0.0270064
0.0349131
0.0276233
0.0261882
0.0301944
0.0568202
0.0350261
0.0194359
0.0488104
0.02557
0.131395
0.138496
0.133832
0.145807
0.107659
0.148432
0.153466
0.117108
0.109257
0.111673
0.135142
0.133925
0.12234
0.0264519
0.030865
0.00937815
0.0118315
0.00956477
0.00915158
0.014601
0.0180802
0.0468402
0.0212707
0.0333108
0.0356824
0.0120194
0.0105634
0.0346643
0.021556
0.0348606
0.0341936
0.0270465
0.0411416
0.0472402
0.0232411
0.0223204
0.00859833
0.03483
0.0120621
0.00875218
0.0387546
0.037526
0.00824607
0.0265158
0.0304571
0.0235416
0.0220283
0.0393392
0.0120675
0.0191952
0.0540761
0.0345081
0.0142129
0.00301608
0.00613674
0.0397328
0.0554994
0.0267347
0.0288937
0.0434206
0.0525644
0.0276059
0.0309688
0.036255
0.0233194
0.0235584
0.0401994
0.0435673
0.052069
0.0250159
0.0255589
0.0350656
0.0527943
0.034389
0.0270336
0.0391546
0.0284095
0.0660004
0.0526079
0.00978353
0.0189356
0.0256379
0.0323686
0.0181436
0.0206638
0.0335366
0.0653779
0.0786975
0.0674616
0.027552
0.0356867
0.0196139
0.0595794
0.046551
0.00867141
0.00831524
0.00803479
0.00836601
0.00900303
0.00759435
0.00633855
0.00655369
0.00625128
0.00743459
0.00795983
0.00535117
0.00759678
0.00816666
0.000851665
0.000794785
0.000808195
0.000851204
0.000836191
0.00081352
0.000830094
0.000845525
0.000889435
0.00089376
0.0423541
0.0318512
0.04554
0.0549598
0.0218758
0.0193579
0.0521718
0.0629368
0.0267822
0.0450127
0.0446088
0.0452008
0.0498536
0.0182029
0.0493149
0.044184
0.0120566
0.103399
0.107947
0.103673
0.163463
0.154599
0.129633
0.15566
0.151776
0.161216
0.173859
0.0958447
0.0977962
0.117718
0.110141
0.13741
0.159422
0.148668
0.105382
0.113249
0.120595
0.000468307
0.000756786
0.000776371
0.000437233
0.000987285
0.0057381
0.00610422
0.00113604
0.000764804
0.000716479
0.0059015
0.00731895
0.000418855
0.00379466
0.00486413
0.00809672
0.178217
0.221672
0.283912
0.264782
0.133033
0.209369
0.13765
0.198224
0.268579
0.25995
0.145974
0.181709
0.224416
0.0290161
0.0372067
0.0351867
0.0259331
0.0232398
0.0249792
0.0352332
0.0316194
0.0265196
0.0266688
0.0178618
0.0261422
0.0109399
0.027689
0.0240704
0.0140487
0.0293601
0.0270267
0.0134473
0.0123116
0.0117317
0.0142708
0.000446721
3.61027e-05
0.000730604
0.000369518
0.000375615
0.0068584
0.0263331
0.00107864
0.00989241
0.0447287
0.0492684
0.0303831
0.0287745
0.0326921
0.0107977
0.0321852
0.0366611
0.0309917
0.0140466
0.0139192
0.0285637
0.00683862
0.0176336
0.0147758
0.0123016
0.0123783
0.0181037
0.0103292
0.1069
0.101207
0.131385
0.122446
0.11213
0.115212
0.0861459
0.117463
0.129125
0.122702
0.13834
0.140269
0.141532
0.134264
0.135144
0.116759
0.015441
0.0332267
0.0281806
0.0166115
0.00253843
0.00448661
0.00579313
0.00255837
0.00240258
0.00223972
0.0197971
0.0136591
0.00398401
0.0107187
0.00624088
0.00485366
0.0217461
0.134677
0.0826835
0.122798
0.0244844
0.102771
0.0909725
0.0717071
0.0798091
0.0800185
0.086554
0.116933
0.156665
0.158191
0.0801146
0.0977722
0.0996012
0.0992234
0.090953
0.162421
0.00203775
0.00121252
0.00100116
0.000920628
0.00115412
0.000817359
0.000849353
0.000909976
0.000964619
0.00186593
0.00225316
0.00124928
0.0011568
0.000844946
0.00219064
0.0119567
0.0134501
0.0220984
0.0306656
0.0378878
0.035112
0.0383746
0.017684
0.0500373
0.0632818
0.0582676
0.0314197
0.0670416
0.0648253
0.00652202
0.0104052
0.00486544
0.00609277
0.00566358
0.00799695
0.00377376
0.00212348
0.00811885
0.00206891
0.00483364
0.00202329
0.0029402
0.00171395
0.00155841
0.00177548
0.0310526
0.0331157
0.027155
0.0270217
0.0619676
0.0624379
0.0189432
0.0417904
0.0398872
0.0234686
0.0629887
0.0529071
0.0644803
0.0509256
0.0544926
0.0634224
0.0669663
0.0646766
0.06323
0.00501707
0.015854
0.00710058
0.0102482
0.00543428
0.032725
0.0112971
0.0183999
0.0209757
0.0163382
0.00517459
0.00700578
0.0070754
0.00612912
0.0232623
0.0200649
0.0168103
0.0376289
0.0277105
0.0323711
0.0139346
0.0207951
0.0392619
0.0269232
0.0213773
0.00192437
0.00164865
0.00145746
0.00962227
0.00050935
0.000858791
0.00343042
0.00302095
0.00167683
0.0014718
0.00341148
0.00386805
0.00158288
0.00312621
0.00111759
0.000877622
0.00090939
0.00102913
0.00414709
0.00108334
0.00742742
0.00674976
0.00544682
0.0103245
0.00798226
0.00780243
0.0208634
0.00757218
0.0204947
0.0235194
0.0185031
0.0131275
0.110574
0.161434
0.0137233
0.162926
0.0686812
0.101276
0.0696619
0.00986334
0.0115195
0.092223
0.081248
0.0774257
0.0130979
0.0955114
0.0960399
0.0775226
0.0969647
0.0863521
0.0870552
0.0901554
0.0908832
0.0888784
0.0862191
0.0911252
0.0916459
0.0989006
0.0151843
0.0903046
0.0173131
0.0914608
0.0903083
0.0902683
0.0855329
0.089594
0.110948
0.102852
0.108385
0.0220199
0.0385201
0.0134324
0.0225457
0.0151055
0.0109893
0.00743843
0.0157458
0.01004
0.0089033
0.00727533
0.00715835
0.00768199
0.00804811
0.00899144
0.00595963
0.0836669
0.0473801
0.0625429
0.0725657
0.0596168
0.0672717
0.0871108
0.0638941
0.0460814
0.112721
0.094429
0.122814
0.0523752
0.101512
0.0168273
0.10031
0.0140947
0.063077
0.0250443
0.0966868
0.021404
0.115073
0.0756924
0.0833771
0.0929951
0.0718902
0.11324
0.0144204
0.10564
0.0458352
0.0788427
0.0848509
0.0158637
0.0796876
0.111695
0.101738
0.10611
0.0930322
0.0720256
0.152641
0.00994206
0.0544389
0.0677678
0.0142691
0.0670637
0.0853715
0.0494871
0.119611
0.0153671
0.132576
0.0677056
0.0976706
0.0131806
0.0820631
0.0576189
0.0993759
0.0596758
0.0935182
0.0148773
0.0947183
0.062947
0.0673953
0.0836831
0.0886495
0.0699047
0.0670541
0.0752479
0.0694643
0.0416487
0.0557361
0.0490646
0.0716311
0.0726171
0.0305882
0.0348065
0.0363453
0.0626004
0.0763958
0.0481537
0.0545938
0.0351151
0.0659441
0.068254
0.0191726
0.0213532
0.0108298
0.00885013
0.00994954
0.0114136
0.0257691
0.0244052
0.0122782
0.0160004
0.0112463
0.0698581
0.0834095
0.054207
0.000912812
0.000903302
0.000915323
0.000962894
0.000909482
0.000878043
0.00315482
0.00363649
0.00548365
0.00283733
0.000130269
0.000994996
0.00138239
0.000812999
0.00254159
0.00236061
0.00717169
0.0024505
0.000567331
0.000684828
0.033026
0.0500757
0.0565749
0.0405227
0.025412
0.0334016
0.0216127
0.00993282
0.0440942
0.0614697
0.0499143
0.0185912
0.0217154
0.0113755
0.0297877
0.0277664
0.030579
0.0352412
0.0304104
0.00594557
0.00281408
0.00427569
0.00362512
0.0350525
0.0370389
0.0173398
0.0233279
0.00872897
0.00461027
0.0244074
0.0102061
0.00513309
0.0274391
0.0395189
0.0211832
0.0168121
0.0222709
0.0183293
0.022825
0.0394607
0.0359954
0.0583648
0.0404893
0.0561533
0.0891676
0.0880749
0.096257
0.0975592
0.110534
0.076185
0.068421
0.0823385
0.0723122
0.0926255
0.0788171
0.0541032
0.0409577
0.0706157
0.0646825
0.0944186
0.0861994
0.104576
0.0740165
0.0361391
0.0840674
0.126897
0.134117
0.115968
0.10068
0.050236
0.0628921
0.0872028
0.0813008
0.0632786
0.000961199
0.000974161
0.00102935
0.00114875
0.000998215
0.000979165
0.00166074
0.000964444
0.00109373
0.000757625
0.000973323
0.000948212
0.00101741
0.00104137
0.00110093
0.00110481
0.00107261
0.00101003
0.00099862
0.00103561
0.0914498
0.104843
0.0767968
0.100019
0.0735627
0.0784362
0.0437257
0.0618503
0.0937201
0.0805662
0.0107786
0.101096
0.0520471
0.0524976
0.0817101
0.076033
0.0107337
0.0835263
0.013339
0.073998
0.000715965
0.00118846
0.00132985
0.00098339
0.000885732
0.000944368
0.00101567
0.000990193
0.00104064
0.000994164
0.00093966
0.00106828
0.00105234
0.000771076
0.00106379
0.000945412
0.00141965
0.153693
0.0891079
0.140263
0.0127547
0.0906513
0.107291
0.0937682
0.110799
0.0190416
0.10769
0.245732
0.0737488
0.000989152
0.000905557
0.000593819
0.000284856
0.000873285
0.000720509
0.000705171
0.000493145
0.000353491
0.000899854
0.000702115
0.000373528
0.00443729
1.93253e-05
0.001698
8.06932e-05
0.00241847
0.00812287
7.16882e-05
0.00501824
0.00710683
0.0283337
0.026165
0.00130801
0.00211459
0.039225
0.0300634
0.0416722
0.0015817
0.00386643
0.00626786
0.00141889
0.00313292
0.00376381
0.00146894
0.0123054
0.00373777
0.00540256
0.00181652
0.0109371
0.028246
0.00944687
0.0133014
0.0188011
0.0571369
0.0028479
0.00277977
0.0434409
0.068308
0.00714091
0.0048993
0.0191169
0.0409766
0.0125244
0.023817
0.0295249
0.0310646
0.0174442
0.0138622
0.0328823
0.027339
0.024216
0.0125175
0.00304729
0.0219568
0.010721
0.00995058
0.00334415
0.00509888
0.00808097
0.0100323
0.0169849
0.000679049
0.00141441
0.000170403
0.000955747
0.0219017
0.0207028
0.00298186
0.000339792
0.00181454
0.012374
0.0210024
0.0210461
0.00169772
0.000427655
0.000711916
0.0188164
0.0108359
0.0630532
0.051465
0.0176387
0.0572836
0.0450803
0.0330961
0.0162115
0.00137448
0.000170484
0.00208895
0.00740948
0.000704202
0.000960235
0.000971119
0.000443039
0.00148469
0.000961384
0.000933536
0.000978659
0.000975879
0.000569472
0.000556495
0.000891124
0.000911997
0.0010364
0.000778222
0.00074386
0.00103899
0.000832113
0.0141821
0.0108563
0.0113443
0.0179979
0.0115043
0.0354936
0.0509747
0.0149459
0.0260236
0.0320889
0.0222122
0.0327017
0.0275955
0.0187985
0.0809414
0.0821764
0.0260643
0.103434
0.0604369
0.057116
0.0406156
0.0144471
0.0187268
0.0555177
0.0529401
0.0291932
0.0287146
0.0295618
0.0168801
0.0210747
0.0312818
0.020345
0.0182777
0.025543
0.0157091
0.0100562
0.0264294
0.0370491
0.0268589
0.0263317
0.0825323
0.0919826
0.0994946
0.0923565
0.0828523
0.0919592
0.0920428
0.091208
0.083318
0.0943886
0.0926336
0.0876097
0.0894796
0.0883642
0.0916256
0.0958309
0.0894467
0.0841122
0.0858833
0.0905924
0.103524
0.0967111
0.104418
0.128444
0.0928225
0.130021
0.0141306
0.0896254
0.0877881
0.0909812
0.102562
0.105365
0.0890766
0.109341
0.0194259
0.086521
0.0986223
0.0210069
0.102077
0.0203727
0.0954711
0.0927954
0.0853484
0.0787716
0.018068
0.102164
0.0917764
0.0648968
0.0773388
0.105489
0.0697141
0.096117
0.0931385
0.0661337
0.0645351
0.058621
0.100422
0.167821
0.123454
0.13872
0.0954432
0.130081
0.107507
0.0921428
0.129425
0.11356
0.107651
0.114239
0.136207
0.106371
0.131907
0.0254455
0.110448
0.0987625
0.104064
0.0210601
0.0886228
0.110298
0.0936065
0.115569
0.0467599
0.0521287
0.0565356
0.0874634
0.0778807
0.131839
0.0935635
0.0875607
0.0505207
0.0699597
0.0998339
0.0703413
0.0106506
0.00990722
0.0678034
0.0718188
0.0738459
0.0137508
0.106562
0.0780357
0.0863185
0.120603
0.107655
0.0113643
0.0754394
0.071311
0.0630952
0.0979405
0.095992
0.0723674
0.0139405
0.0899516
0.0976564
0.089599
0.0631845
0.107759
0.126374
0.0654647
0.0640135
0.104467
0.0911849
0.0809409
0.0114542
0.117421
0.0836944
0.0695845
0.0687263
0.0850173
0.0734288
0.105101
0.110496
0.120619
0.108564
0.0992793
0.116268
0.112451
0.107546
0.1197
0.11464
0.0919551
0.0947426
0.120253
0.101563
0.0961722
0.11083
0.111785
0.0328637
0.0327825
0.0402214
0.0391968
0.0384785
0.0435307
0.0309906
0.0296905
0.034856
0.0340647
0.0325437
0.0505746
0.0371737
0.0408447
0.0389939
0.0466731
0.0356538
0.0423626
0.0398257
0.0511544
0.0465913
0.0441164
0.0231892
0.0207928
0.0184343
0.0192634
0.016074
0.00987874
0.00852853
0.0159227
0.0152247
0.00849431
0.00777493
0.0119856
0.0105489
0.00662692
0.0136635
0.00798142
0.010536
0.011642
0.151189
0.135708
0.120005
0.130557
0.119669
0.130637
0.191808
0.134799
0.135571
0.153974
0.125635
0.125244
0.14163
0.141564
0.223396
0.150601
0.167844
0.0309653
0.0060739
0.0342796
0.0880932
0.0856765
0.00782291
0.0238425
0.021539
0.00355935
0.0565158
0.075271
0.0919191
0.0441682
0.0429986
0.0871182
0.100569
0.0317624
0.0327299
0.0342226
0.0339372
0.042089
0.0457602
0.032323
0.0941315
0.0980173
0.0422044
0.0396135
0.0559004
0.0855015
0.0934268
0.0853267
0.0967536
0.0873462
0.0964377
0.0806323
0.0148042
0.0964954
0.0136358
0.073007
0.0851911
0.0689942
0.0221224
0.0202493
0.0221565
0.0188017
0.0103073
0.0181666
0.014085
0.0124755
0.0137011
0.0147229
0.0147533
0.0145052
0.013114
0.0154133
0.0421558
0.0522482
0.0337875
0.0372505
0.0568163
0.0344421
0.0368451
0.0609807
0.0777094
0.0688916
0.0862148
0.0472296
0.0496825
0.0626068
0.0289917
0.0743581
0.0743196
0.0259531
0.035913
0.120447
0.0406642
0.173583
0.226699
0.0644346
0.10595
0.135575
0.210371
0.187647
0.153653
0.151442
0.198496
0.207224
0.193556
0.00144412
0.0016947
0.000972165
0.00119152
0.00128531
0.00111234
0.00119086
0.00113323
0.000940379
0.000894305
0.0928368
0.0118818
0.0866545
0.014629
0.0542919
0.0495414
0.0409139
0.0606028
0.07399
0.0740882
0.0861726
0.092927
0.0874014
0.0470747
0.0498537
0.0242864
0.0741983
0.0861631
0.0464312
0.0494296
0.042884
0.0462408
0.106458
0.0648271
0.122275
0.084237
0.0690458
0.0221681
0.0606153
0.154996
0.0961416
0.0176076
0.0553585
0.0235107
0.0610245
0.142859
0.115991
0.0622477
0.0552966
0.0878983
0.000870934
0.000870753
0.000873743
0.000873873
0.000873036
0.000869012
0.000873895
0.000871417
0.000866744
0.000865484
0.000876329
0.000870551
0.000866222
0.00086919
0.000876998
0.000887131
0.000872495
0.000877129
0.000865961
0.118831
0.1109
0.0800742
0.100366
0.0621496
0.0562297
0.08989
0.0994791
0.0618327
0.106531
0.0783055
0.108475
0.106271
0.0633399
0.11381
0.098318
0.110011
0.0443754
0.000947944
0.000964784
0.000971665
0.000934808
0.000953615
0.000971014
0.000977162
0.000977719
0.000965917
0.00102868
0.000994205
0.000981932
0.000994973
0.00100983
0.00102787
0.00102216
0.000857617
0.000842995
0.000841725
0.000864327
0.000878447
0.000859383
0.000851179
0.000856325
0.000826259
0.000825396
0.000872561
0.000832573
0.000872544
0.000844149
0.000879262
0.000853246
0.000853732
0.000853209
0.000877238
0.000860323
0.000851572
0.000888565
0.000869507
0.00086624
0.000844985
0.000896768
0.00089972
0.000864334
0.000874786
0.000979875
0.000850993
0.000927793
0.000905989
0.00026935
0.000860893
0.000897331
0.000872084
0.00090251
0.000908345
0.00073465
0.000873532
0.000858955
0.000852536
0.000666944
0.000886694
0.000890189
0.000884969
0.000879758
0.000879101
0.000880793
0.000880564
0.000901359
0.000893026
0.000886445
0.00089023
0.000890697
0.000883399
0.000874383
0.000886642
0.000885758
0.000899889
0.000889791
0.000896239
0.00089285
0.0824805
0.0823297
0.0799814
0.0570328
0.0688295
0.0646702
0.0785428
0.0733335
0.0752097
0.0486899
0.0492471
0.0708013
0.0665317
0.0706939
0.076372
0.0966355
0.0679776
0.0844139
0.0848854
0.0906362
0.0973302
0.0776985
0.0879507
0.0880803
0.0917484
0.0941539
0.0997831
0.0894625
0.0546271
0.0531615
0.0517376
0.0841297
0.0930516
0.000908782
0.000909153
0.000896541
0.000946872
0.000913175
0.000909521
0.000862945
0.000886293
0.000887742
0.000879007
0.000882774
0.00089659
0.000897449
0.000893775
0.000877395
0.0572072
0.0409297
0.0371508
0.0355841
0.0652553
0.0447201
0.0542703
0.0638808
0.0709368
0.000882307
0.000889082
0.000882915
0.000881871
0.000893358
0.000881923
0.000880826
0.000886816
0.000886427
0.000873811
0.000870393
0.000854046
0.000868456
0.00088617
0.000881355
0.000868281
0.000844514
0.000854133
0.000897493
0.000886179
0.000884805
0.000833158
0.00073401
0.00103127
0.00065215
0.000766653
0.00105432
0.00184243
0.000857644
0.000716473
0.000572333
0.000752504
0.000633319
0.000764626
0.000843646
0.000532822
0.000683072
0.000759799
0.00068808
0.00159528
0.000859646
0.00220583
0.000819889
0.000838422
0.000788486
0.000904075
0.000958681
0.000879761
0.000918682
0.000948578
0.000879961
0.000838176
0.00080414
0.000808788
0.000802873
0.000903402
0.000890414
0.000931265
0.000919442
0.000887205
0.000887623
0.000888194
0.0008653
0.000945599
0.000811237
0.000904358
0.000939598
0.000805246
0.00659122
0.0119444
0.010422
0.00821778
0.00257659
0.00484174
0.000455174
0.000717807
0.0096711
0.00174519
0.0100119
0.00699944
0.00580751
0.00101533
0.00148589
0.00425654
0.00166542
0.00222535
0.000899322
0.00160895
0.00180189
0.00197213
0.00159053
0.00404728
0.00176465
0.00227792
0.00214912
0.00224979
0.00207839
0.00220549
0.00222209
0.00178701
0.0017929
0.00639948
0.0028512
0.00412412
0.0052659
0.00282416
0.00368643
0.00324751
0.00315138
0.00286093
0.00349023
0.00281994
0.000887111
0.000889785
0.000960566
0.000882852
0.000887772
0.00104172
0.000904458
0.000895146
0.000879846
0.00089835
0.00105977
0.000893145
0.000856428
0.00084788
0.000859899
0.000857324
0.000816158
0.000855741
0.000861869
0.000861934
0.000850991
0.000820862
0.000868029
0.000835337
0.000859658
0.000858464
0.0557911
0.0428817
0.0500491
0.055578
0.0485952
0.0419856
0.0468584
0.0491445
0.0506299
0.0620353
0.0636415
0.0578442
0.0618869
0.00582433
0.00394416
0.0047178
0.00371086
0.00340655
0.00579805
0.0019929
0.00681249
0.00385822
0.00337444
0.00334962
0.002495
0.00203321
0.00154791
0.00319249
0.00557027
0.00419943
0.0080931
0.00632293
0.0102705
0.0041141
0.0019509
0.0158453
0.0128793
0.0311885
0.00856449
0.0148025
0.0070288
0.00464777
0.0123299
0.00621554
0.00629178
0.00832786
0.00505082
0.00782173
0.00552993
0.0114079
0.00592922
0.0040727
0.00443722
0.0102835
0.00513421
0.00471679
0.0052728
0.00646451
0.108629
0.117582
0.109921
0.0906525
0.110031
0.109233
0.124391
0.117324
0.111741
0.122021
0.127226
0.000837933
0.00082892
0.000836566
0.000838437
0.000833751
0.000836596
0.000836156
0.000832504
0.000833437
0.000832437
0.000836042
0.000838506
0.000833804
0.000475924
0.00145881
0.000222669
0.00475281
0.000293188
0.00118173
0.000623933
0.000791748
0.00115376
0.00138399
0.000974002
0.00108004
0.00110955
0.00102851
0.00176342
0.000943949
0.00106298
0.00105916
0.00155019
0.000938397
0.000942449
0.00098988
0.000732613
0.000776697
0.000654846
0.000467129
0.00100057
0.000690049
0.000675094
0.000907398
0.000666944
0.000781052
0.00078349
0.000842576
0.000847705
0.000818117
0.000771011
0.00083945
0.000829912
0.000854245
0.000840113
0.000854989
0.000841231
0.000864785
0.000860634
0.00084066
0.000829122
0.000841597
0.000845694
0.00093587
0.000855315
0.000862923
0.0009279
0.000924475
0.000939336
0.000914062
0.000913573
0.000933298
0.0009424
0.000925792
0.000935446
0.000930403
0.000917615
0.000935241
0.000913879
0.000110609
0.00100758
0.00105778
0.000561279
0.00075608
0.000907625
0.000873239
0.000999787
0.000914727
0.00090916
0.00092022
0.000564079
0.000405454
0.000907802
0.000943832
0.000653601
0.00108806
0.00066256
0.00166418
0.00191861
0.000764484
0.00276008
0.00472089
0.00265162
0.00257987
0.00722098
0.00572454
0.00434844
0.00727397
0.0105173
0.00808113
0.0090857
0.0119199
0.00708429
0.00774661
0.00942557
0.0106342
0.00736848
0.0102692
0.0343565
0.111502
0.0352332
0.0501862
0.0380963
0.0786598
0.0166778
0.0191096
0.0836154
0.0171678
0.0403241
0.109393
0.0488821
0.0253286
0.0480764
0.0356868
0.0129921
0.0415469
0.0487752
0.0202113
0.0667751
0.0419794
0.0232594
0.0142698
0.0408524
0.0548343
0.0583776
0.00430853
0.0101918
0.010917
1.39153e-05
0.00379603
0.0947338
0.0273275
0.0772759
0.0445848
0.114478
0.0228869
0.103149
0.170271
0.126486
0.0847382
0.0851433
0.172048
0.083074
0.120591
0.0482558
0.119774
0.0970868
0.0670948
0.0815466
0.0908343
0.0666066
0.0778774
0.11427
0.0988772
0.0653772
0.059533
0.0879801
0.0846182
0.0626848
0.0604971
0.0962857
0.0931105
0.0749305
0.00878606
0.0120821
0.0170419
0.00974701
0.00733627
0.00995523
0.0038573
0.0114858
0.00360914
0.00923951
0.0173983
0.0157726
0.0146409
0.0111661
0.012608
0.00978821
0.0139324
0.00709452
0.019952
0.0150326
0.0665638
0.0748583
0.0472618
0.0436297
0.047343
0.0359201
0.041671
0.0613555
0.0886501
0.0797367
0.0215084
0.0641979
0.0913439
0.0642801
0.00876224
0.000481047
0.00363019
0.000814079
0.000725747
0.000784948
0.00703964
0.00183955
0.00561598
0.00652415
0.00778571
0.00588783
0.00114644
0.000134657
0.000943969
0.00183976
0.00333686
0.00331791
0.076114
0.0987135
0.0926847
0.106771
0.123502
0.0941558
0.153604
0.0183228
0.146351
0.0738556
0.0424452
0.0232924
0.0428102
0.0565608
0.0917714
0.0231493
0.104567
0.0797527
0.0314322
0.0446286
0.00372534
0.0322108
0.000802357
0.000817721
0.000687015
0.00069372
0.000803442
0.000799077
0.000797811
0.000738822
0.00077973
0.000858636
0.000786486
0.00078531
0.000734273
0.00071858
0.000724719
0.000744984
0.000740158
0.000796838
0.00077127
0.0007363
0.00138761
0.0042401
0.0111726
0.000916962
0.000235889
0.000632885
0.0119269
0.000120754
0.00339248
0.000809945
0.000813072
0.00484643
0.00075773
0.000791111
0.00529321
0.182411
0.264118
0.184834
0.327809
0.246119
0.341566
0.334931
0.154114
0.00349254
0.00263579
0.00776407
0.00627463
0.00667433
0.00188475
0.00314685
0.00177809
0.00684935
0.00490037
0.00196528
0.00486354
0.0228172
0.0321714
0.0984301
0.0672383
0.0259365
0.0396977
0.0956012
0.0966307
0.0915658
0.0921583
0.0144305
0.0902665
0.0938051
0.0188364
0.0726164
0.0452065
0.0462757
0.0583074
0.000791233
0.00169641
0.0019949
0.00243185
0.00223347
0.000755004
0.000999052
0.00173377
0.00163617
0.00210289
0.00307588
0.00134977
0.00123241
0.00232856
0.00115064
0.00270458
0.00320376
0.00151663
0.0200489
0.020243
0.0320855
0.0346262
0.0266421
0.0309706
0.0178217
0.0201118
0.0228142
0.0364705
0.0299131
0.0211515
0.0413318
0.0212132
0.0245539
0.0306711
0.0300213
0.0203523
0.0183951
0.0316999
0.0261359
0.0188882
0.000919331
0.000912773
0.000925174
0.000937051
0.000917342
0.000928936
0.000922136
0.000910923
0.00091927
0.000927025
0.000933126
0.000926693
0.000926954
0.000921262
0.000925904
0.000919426
0.487692
0.434819
0.427967
0.4864
0.426425
0.455278
0.250792
0.233775
0.170552
0.171519
0.167509
0.173426
0.311801
0.180593
0.206541
0.163538
0.172241
0.231582
0.0287592
0.047621
0.0431602
0.0282707
0.0159527
0.0120989
0.0211062
0.0261653
0.0369927
0.031261
0.0170175
0.0140438
0.0131146
0.0149875
0.025817
0.0179824
0.00213609
0.000937963
0.000727743
0.000734128
0.00111726
0.00077319
0.000781783
0.000798907
0.000601984
0.000565842
0.00294071
0.00218312
0.0039177
0.00019246
0.000707864
0.000593426
0.000645435
0.000723959
0.00167993
0.00324318
0.0526087
0.0528974
0.0491748
0.0318242
0.0108141
0.0307788
0.00330675
0.0268313
0.0331713
0.0437016
0.0120977
0.010403
0.0207518
0.0237093
0.0136868
0.0155489
0.0161245
0.0169164
0.0160827
0.0245233
0.011073
0.0199123
0.00374366
0.014501
0.00492943
0.00298589
0.00383338
0.00284064
0.0689511
0.0571163
0.0418836
0.06378
0.0773928
0.0293381
0.0211045
0.0532161
0.0630995
0.0609677
0.0223931
0.0173934
0.0392765
0.04181
0.0354034
0.0258501
0.0340034
0.0130401
0.0119225
0.00249033
0.0134155
0.0128602
0.0145426