/*--------------------------------*- C++ -*----------------------------------*\
  =========                 |
  \\      /  F ield         | OpenFOAM: The Open Source CFD Toolbox
   \\    /   O peration     | Website:  https://openfoam.org
    \\  /    A nd           | Version:  10
     \\/     M anipulation  |
\*---------------------------------------------------------------------------*/
FoamFile
{
    format      ascii;
    class       volScalarField;
    location    "8";
    object      omega;
}
// * * * * * * * * * * * * * * * * * * * * * * * * * * * * * * * * * * * * * //

dimensions      [0 0 -1 0 0 0 0];

internalField   nonuniform List<scalar> 
75457
(
32.953
34.8972
26.8167
21.4909
25.8589
34.0175
28.4692
34.1027
17.2424
17.0103
16.0155
20.3809
19.7256
17.6068
2.3582
2.33826
2.01934
2.36732
2.29301
2.02778
2.18789
2.19441
2.38328
2.35288
2.28194
2.52592
2.54428
2.03161
2.13303
2.03294
1.91869
2.20335
2.26609
1.91203
1.87853
1.9697
1.90783
2.38933
2.28734
1.91457
2.00578
1.9006
1.8928
2.57374
2.79355
2.31902
2.24105
2.52999
6.14093
3.41914
4.84174
5.62169
13.8842
4.6558
3.72876
3.92632
7.84444
8.74143
7.94384
15.3485
12.0012
6.59407
8.73931
7.2006
7.07806
8.00308
6.68694
8.29469
8.49089
13.9457
8.20443
14.5354
7.76745
7.74989
8.06617
7.15417
7.60361
15.2726
11.917
7.34341
16.8007
11.5981
12.2637
8.40095
5.72451
5.40678
5.98758
6.79659
12.9807
15.1083
7.3826
6.14283
13.0913
7.09239
5.66252
3.36368
3.66034
3.89429
23.9326
6.81497
8.36062
10.9807
22.1376
20.009
39.6128
41.1387
20.8252
18.6983
20.4336
7.23788
5.60737
15.7099
15.6783
13.4073
5.31674
9.8475
22.0957
9.20811
8.60607
24.1731
6.0321
6.74924
6.69361
6.41288
7.65964
7.5799
15.3634
6.45744
11.4594
7.19506
6.85498
6.90651
6.54403
6.06529
3.31862
15.2984
7.02835
5.44922
5.71556
24.6343
4.40181
5.38164
6.63264
4.33128
4.54723
5.96156
7.09999
8.2259
17.9592
5.05705
31.7478
9.32714
5.10886
4.12621
9.02685
13.1344
4.80594
27.5682
5.29885
6.96964
22.5306
5.35817
8.30437
6.037
6.26013
6.53002
6.22413
6.39665
5.78384
5.78201
6.06452
6.29271
6.01607
6.14091
5.9536
5.81365
8.66856
7.90896
7.5723
11.6484
4.56507
26.557
3.86721
12.0896
28.0828
5.16498
3.80466
9.58764
17.8262
39.4254
7.7776
7.82625
8.4829
13.0455
6.25419
24.9911
4.01566
4.60598
4.06852
4.41163
3.9225
7.50284
8.7143
12.9439
6.28748
7.1831
13.0263
11.6694
12.5482
12.671
11.0996
11.38
23.522
26.2489
9.52931
10.9591
25.142
10.9948
27.5143
25.6622
26.3182
8.59325
12.1044
23.2671
10.606
11.401
27.7851
13.2454
7.85232
20.2914
5.05687
4.94812
19.8328
8.36286
9.70866
7.19091
9.29933
4.47158
4.76234
5.0048
5.26283
9.01853
21.5062
7.14778
16.5079
10.0994
6.94021
7.29381
10.8853
24.6706
10.4544
21.8024
9.79113
19.7233
7.93402
14.0825
6.34202
4.6232
5.38789
3.29377
3.66087
4.10032
4.46382
6.15682
9.9175
17.881
12.0102
29.9127
17.0635
19.7851
26.4101
16.8218
5.83975
6.2106
9.99422
6.04704
10.3449
11.4638
17.4195
10.2134
9.50117
16.2596
9.73749
15.3307
7.47085
14.7483
6.79994
4.20846
4.21358
5.48209
5.08199
5.48455
4.98146
20.7097
15.5296
24.0517
15.8668
8.35966
8.48318
22.4786
8.22703
8.69885
21.7116
3.79606
3.73775
1.88877
21.7116
2.87698
2.38392
21.7116
1.08601
3.03106
5.35094
2.61945
9.77002
9.45928
8.31871
9.5978
11.5543
22.387
9.42851
6.51519
7.06141
8.77435
22.387
4.48118
4.57125
5.10263
7.96153
12.739
10.7752
9.56076
11.0842
25.5186
5.61574
5.77422
8.61513
7.8236
30.811
9.78181
8.2758
29.3303
7.6661
5.49843
18.5105
6.63023
11.4913
7.65011
18.5105
5.9798
6.55993
9.96069
6.75557
4.57136
9.12697
8.05556
9.96045
28.1518
8.25561
5.42577
15.7258
22.6519
16.2118
22.0833
4.34286
4.07076
5.2982
4.96416
7.28553
6.28274
10.8198
6.09225
6.65354
8.52073
22.6709
12.3528
11.2323
7.49743
18.4437
6.19546
7.99677
7.7746
18.9462
15.9208
18.1548
4.15724
8.63962
8.73881
4.8769
4.30693
8.25298
4.52182
4.57624
4.42014
4.41015
4.57832
4.59406
4.50939
4.58053
4.60428
4.60636
4.52211
4.43063
4.52341
4.48692
4.44687
4.56495
4.4399
4.41736
4.36771
4.3663
4.44612
4.38239
4.46393
4.39629
4.49623
4.47784
4.36776
4.43038
4.41476
4.4633
4.44867
4.26219
4.32449
4.33625
4.37359
4.32044
4.35201
4.38504
4.43625
4.26605
4.30365
4.26758
4.26295
4.32258
4.36831
4.33654
4.41783
4.3496
4.37486
4.33915
4.37529
4.33215
4.36182
3.69392
2.86535
2.88162
2.87761
2.86321
3.50667
2.878
2.83645
2.74502
3.7739
2.69984
2.78734
2.77457
2.82142
2.64718
3.3889
28.9882
19.9033
18.3432
16.9399
12.8802
13.1833
14.1558
16.8553
12.5128
13.0539
33.1282
32.3515
27.2775
19.336
13.6756
10.611
3.56274
3.50591
3.76675
3.90536
3.70179
3.62051
3.55107
3.50452
3.59331
3.62298
3.65597
3.84572
3.81966
3.59767
4.67904
3.7212
3.64029
3.64554
4.5562
4.61021
4.57483
4.50483
4.47797
4.51436
4.52912
4.5419
4.53979
4.52518
4.55506
4.6263
4.54358
4.58263
4.60547
4.62317
5.82928
5.59503
5.91593
5.59068
5.36299
6.0156
6.35899
6.03408
5.86285
6.03377
5.87215
5.76059
6.01504
5.73834
5.80803
6.24474
6.33579
4.70022
4.86079
4.66922
4.69852
4.62053
4.58951
4.67145
4.80122
4.60018
4.49752
4.71219
4.55275
4.49096
4.50367
4.56585
4.4393
4.61056
4.328
3.67283
4.23581
5.27891
3.14872
4.50578
3.41449
4.23665
3.3275
3.27997
3.98703
5.24077
4.41167
3.61961
3.83351
3.41147
4.95448
5.1217
2.15394
2.16365
2.21794
2.44634
2.05362
2.53866
2.15317
2.15918
2.17127
2.69362
2.29834
2.18217
2.23573
2.08895
2.48639
2.44914
2.64748
2.44355
2.74128
2.717
2.68814
2.54241
2.46662
2.74515
2.77606
2.73255
2.50897
2.37762
2.40143
2.64672
2.50808
2.60861
4.25734
4.26907
4.29285
4.51433
4.57329
4.28951
4.28891
4.4988
4.42304
4.47664
4.2681
4.54987
3.92224
3.38125
4.2453
3.22873
4.14617
3.79638
4.09958
4.07627
4.06344
2.9415
2.81469
2.9421
3.22918
3.14365
2.94459
3.17267
1.97617
2.52905
1.94649
2.34155
3.43989
3.1387
3.85569
3.01333
2.91397
2.40984
2.19448
2.04609
3.61063
2.14166
2.25316
2.46191
3.64182
3.62112
3.64108
3.67654
3.80197
3.68976
3.63923
3.59451
3.58057
3.67214
3.7027
3.67139
3.69035
3.75842
3.76279
3.66821
3.63322
3.70653
3.58405
2.43753
2.40304
2.15599
2.72801
2.37466
2.64062
2.56481
2.25872
2.39555
2.11914
2.60441
2.49467
2.37912
2.3941
2.7076
2.56859
2.58142
2.71522
2.52411
2.64215
2.40643
2.38754
2.47286
2.31455
2.30929
2.61369
2.44888
2.38881
2.44061
2.24733
2.27541
2.4224
5.10611
6.32398
6.40459
3.99275
3.99038
5.47876
4.78461
3.40294
3.72047
6.91265
5.59261
7.44232
6.75299
8.42965
8.74653
7.90835
7.66651
7.35733
7.37798
6.88753
6.79023
8.645
10.0726
10.1169
8.7307
9.76956
9.74861
8.24751
7.9847
8.71604
8.65009
8.25977
2.72673
2.76265
2.99499
2.85499
2.86073
2.65599
2.79179
2.79738
2.77285
3.47389
3.83593
4.31935
2.59864
3.7916
5.11705
3.50193
4.37007
2.02612
3.11727
4.39806
5.89481
3.12005
3.47114
9.81223
7.14143
3.79669
6.70284
4.16998
4.40992
4.02641
4.20299
5.54131
5.26442
6.43056
7.05692
7.35215
6.79219
5.64534
7.40348
6.5579
7.17834
2.07592
2.13854
1.86643
1.8967
1.92818
1.88644
2.01115
2.04528
2.49902
2.00751
2.18694
2.25051
1.86936
1.91788
2.33955
1.93514
2.18174
2.15297
2.0776
2.50431
2.57483
2.01187
2.58598
2.31052
2.75742
2.33199
2.30614
2.97948
2.79973
2.19699
2.54496
2.80335
2.61152
2.58394
2.9132
2.21587
2.3872
3.1247
2.65495
2.27899
2.06569
2.09269
2.70152
3.41431
2.17049
2.27257
2.83108
3.19668
2.20808
2.18717
2.48605
2.20121
2.21913
2.66693
2.76463
3.15111
2.26004
2.23201
2.43289
3.1807
2.2337
2.2026
2.45314
2.15518
3.92417
5.3586
2.1209
2.29107
2.54213
2.8605
2.27423
2.40124
2.73231
3.37311
3.93432
3.60433
2.44844
2.41035
2.2229
2.65861
2.46208
2.64812
2.63548
2.45333
2.50125
2.49381
2.39923
2.32963
2.44456
2.44192
2.51448
2.45498
2.33193
2.5371
2.60102
4.45276
4.73988
4.84145
4.53664
4.69246
4.74091
4.85127
4.61314
4.70476
4.81765
3.00321
2.65706
3.01772
3.38187
2.50492
2.47786
3.32972
4.04563
2.57155
3.29697
3.15815
3.16457
3.55391
2.55686
3.43812
3.16962
2.48595
5.67902
5.9939
5.80832
6.18573
5.89072
5.58708
6.15452
5.85973
5.69075
5.63941
5.74026
5.64798
5.96423
5.65271
6.0324
5.50761
5.59513
5.40767
5.60522
5.43321
4.76445
4.83392
4.74515
4.77226
5.02246
5.16252
5.60997
4.91644
4.90888
4.78796
5.48807
5.54677
4.74287
4.85884
5.09531
5.83323
10.0674
8.72865
7.77938
8.0872
11.7631
9.61352
12.1793
11.849
9.82284
9.57265
11.9729
10.7497
10.4016
2.85397
3.08032
2.87562
2.73834
2.65215
2.69731
3.01886
2.90537
2.72873
2.76433
2.4955
2.78698
3.85395
4.26316
4.00351
3.89833
4.19942
4.11157
3.77256
3.74112
3.70476
3.77491
3.80072
3.77028
3.86085
3.83315
3.92671
3.85939
4.03368
3.85831
3.85976
3.85916
3.85268
3.69886
3.69091
3.91952
2.88454
3.31061
3.71919
3.42991
2.74358
2.7511
3.3118
2.60619
2.96028
2.89964
2.68738
2.67509
2.9248
2.72791
4.87656
5.35021
6.25448
5.46205
5.13255
5.39382
5.0706
5.08466
6.16872
5.63574
6.4042
6.14539
6.78019
6.92869
6.56822
6.411
4.50487
4.92203
4.645
4.41398
4.41056
4.49671
4.42833
4.4011
4.42917
4.52025
4.60065
4.49547
4.57404
4.58386
4.81832
4.65785
13.2873
12.289
12.9818
12.2694
14.0673
12.3257
5.91036
6.64216
5.96587
6.37078
6.1388
7.16214
9.39654
11.1161
10.8534
8.41549
10.23
10.3158
7.09309
10.7435
6.67556
7.62952
7.34513
7.07122
6.83466
7.15132
7.73551
7.37449
6.88993
7.30838
7.37574
7.05601
7.49042
6.96007
7.12987
4.99039
5.30149
5.27002
5.29805
5.89393
6.25231
7.07686
6.03165
7.38629
7.80975
7.38034
6.60753
8.34601
8.82666
3.73444
4.13195
3.6202
3.72222
3.60354
3.80786
3.42058
3.23114
3.95482
3.46916
3.61236
3.22333
3.37854
3.21215
3.23822
3.1893
2.37807
2.42304
2.317
2.34139
3.58462
3.66854
2.1839
2.85527
2.87772
2.18826
3.48597
3.28324
4.08901
3.21746
3.22501
3.74481
3.63884
4.35893
4.48899
2.6587
3.30878
2.98706
2.8759
2.75124
3.8581
3.12385
3.40137
3.63751
3.43906
2.58785
2.63733
2.87495
2.66409
3.61703
3.38823
2.77519
3.1717
2.91532
3.03244
2.62285
2.74448
3.16267
2.82559
2.75366
8.26617
7.19524
7.2086
8.13467
8.52189
7.55394
7.3883
7.58223
7.54954
7.47759
7.62022
7.45374
8.224
7.99289
8.07997
8.33429
8.04614
7.84323
7.4078
7.86433
3.10923
3.07044
3.03384
3.00286
3.03629
3.19283
2.95511
3.03723
3.17321
3.04644
3.01447
3.00828
4.79079
7.04691
24.26
5.41744
18.6078
6.38112
11.3924
20.7181
22.2872
5.15298
11.5477
14.2466
23.8628
6.65065
11.3631
3.98569
8.33924
5.27316
4.64367
8.06372
9.48701
7.50155
4.59608
3.90465
3.83351
12.1967
14.1739
13.4425
15.0091
3.79446
3.94739
3.79738
3.65376
3.77505
5.53535
6.23498
5.17088
1.97095
2.26217
1.84488
1.98066
1.84579
1.80207
1.76617
1.84337
1.81598
1.82015
1.87916
1.83056
1.81995
1.81033
1.83169
1.82111
5.21548
5.29152
5.96814
5.82917
10.1239
8.41384
5.1418
6.49249
7.76582
7.52307
8.35884
7.4064
3.76979
11.6066
13.5839
9.66272
12.4283
4.50131
2.76811
9.60109
2.82995
8.47983
16.6272
4.77774
8.17459
4.08432
9.92976
18.8074
10.0798
2.74569
4.40029
5.15582
19.7634
4.50832
6.60502
8.0474
12.6791
4.16352
8.05392
3.71494
21.2165
5.86128
7.10188
25.4733
5.37483
8.47987
7.78039
7.64361
16.0894
5.59359
6.54379
11.0922
15.0554
4.46233
3.95353
8.57885
3.83691
8.73868
15.9985
8.58025
3.48082
3.87329
14.8537
9.27363
3.8364
3.52705
4.35467
3.64513
2.60251
3.0602
2.76694
3.72438
3.86361
2.33526
2.46491
2.49048
3.44255
4.26491
2.83753
3.07387
2.46257
3.38556
3.53217
4.33357
3.67889
4.08488
4.12306
3.89647
3.93642
4.66951
2.79357
3.62795
4.26514
3.93949
5.9289
8.36246
5.29541
11.8967
11.5804
10.9878
10.7673
12.2784
10.6235
10.1926
10.782
11.1148
11.0572
12.3978
12.9192
10.209
10.4375
10.8175
11.2239
10.9138
12.3886
11.6193
10.8067
7.95033
9.84926
6.8572
6.75218
10.6419
10.585
17.8891
15.7666
6.50719
6.89358
7.96943
10.2588
11.3727
15.5677
7.97714
10.0219
6.44165
6.48095
7.25839
5.17038
4.52483
4.60485
4.07458
10.3763
14.7002
9.59531
11.6141
4.5501
4.41327
11.3896
7.62672
4.77581
6.18109
11.9775
7.72563
5.84597
10.8491
5.90602
10.3474
2.18703
2.18302
2.58324
2.25991
2.52372
9.05825
11.6567
5.15677
5.46182
3.56419
3.38989
2.62869
3.43785
3.17857
6.54485
3.08815
2.52907
2.24344
3.10926
7.9028
6.5219
6.8412
6.89014
7.92897
11.8521
6.94269
6.53203
6.28425
6.87381
7.6781
13.8188
11.7149
7.18728
7.98682
10.5267
24.4801
22.8333
24.0481
26.0453
30.4416
27.4793
30.3349
43.425
40.991
36.5473
32.3046
31.6976
44.7025
33.7496
32.5182
31.2397
38.9009
38.7564
39.4783
29.3594
7.93178
9.55105
7.79781
10.0728
6.24299
6.65499
4.24041
5.2565
11.8964
8.10719
16.939
9.25879
4.65554
4.43353
14.0125
11.0061
16.8941
8.75704
18.9478
6.51057
30.642
37.5236
41.4736
55.8864
42.0926
29.8291
24.6178
39.5069
47.1094
41.9993
45.3294
35.6067
62.5766
41.0426
79.0056
80.9897
55.276
3.22886
11.9212
6.87708
31.6822
6.018
5.80113
8.43094
7.65239
38.9948
7.48476
1.98265
20.9873
12.1261
11.5944
15.2049
14.547
13.1316
11.6016
10.9377
10.6841
14.0178
15.132
12.5932
12.9307
12.8438
14.1889
11.5772
12.8931
12.8176
12.0125
15.4364
11.2194
11.3303
5.80806
5.69857
5.49127
5.62928
6.3226
5.87296
6.30798
5.73818
5.5163
5.63733
5.59248
5.47424
5.41521
5.36714
5.83424
5.68165
5.59938
5.49999
4.81693
5.25245
4.80497
4.9765
5.08421
6.30359
4.76919
4.94822
6.07154
6.94664
5.12771
4.84294
5.07012
5.90287
5.15198
6.0162
6.443
6.44045
6.06863
5.69898
6.55651
5.56542
6.34158
6.22538
6.34822
5.59466
6.23741
6.21812
6.25557
3.16879
3.24061
3.21333
3.37435
3.08242
3.04566
3.16544
3.14958
3.53972
3.69977
3.14451
3.15453
3.20847
3.33332
3.52163
3.43548
7.1183
7.17147
7.30657
7.11359
7.07958
8.10802
6.96559
7.06285
8.47161
7.27185
6.58399
6.41404
7.11956
7.85052
7.68605
7.21793
7.25646
21.8406
21.9961
16.786
18.1168
19.6364
21.9388
25.1957
25.508
18.6394
19.7754
25.563
30.1089
24.8708
26.6352
23.7608
25.1497
24.1292
7.57171
5.84684
5.48469
7.54709
5.12472
12.5867
19.9942
5.27352
11.166
11.2285
7.69643
10.0372
11.5071
5.46921
3.39048
10.4147
22.5995
4.57239
8.28654
6.79865
5.64039
4.6413
4.471
6.87917
6.56804
5.28176
5.17259
4.93453
4.8228
4.78621
5.01293
4.65652
4.49881
4.86805
4.60031
4.64345
4.86868
5.27309
4.6949
4.69225
3.62449
3.43498
3.25382
3.47208
3.91231
3.33095
3.21562
3.25514
4.11637
3.30815
3.4165
3.50746
3.71864
3.30518
3.17331
3.12113
5.36063
4.38233
4.77619
5.65504
4.74237
4.29333
8.81776
5.78407
6.1428
6.08256
13.9328
8.10697
4.95011
8.97014
4.33975
7.17371
8.88735
13.7129
16.1891
10.0491
14.3909
16.7167
10.6596
15.2853
11.2016
7.83974
5.84726
4.54861
14.5533
9.70878
11.0466
3.03606
4.35363
11.4052
3.90664
10.3229
9.41541
3.80564
3.50293
3.29174
8.07075
5.4382
5.50596
5.3996
6.6783
5.47462
5.57132
6.45567
5.57612
5.81704
6.70077
5.73965
5.77028
7.79225
6.53808
9.72105
6.03611
7.45497
8.68487
9.8261
8.92263
8.20671
7.22151
5.50378
4.41243
4.5013
4.68736
8.3964
6.92691
7.29399
6.92757
6.48724
4.19271
6.17583
7.56426
7.63416
18.1901
17.6326
6.36882
6.43556
6.88559
20.732
8.40847
12.1045
7.44598
3.30226
8.98591
14.7066
6.09395
4.79736
4.02862
9.60891
8.38059
14.2125
16.2705
6.65537
9.07617
9.93675
4.12814
6.18987
5.91651
4.4346
4.40905
9.5847
8.77279
10.0666
15.778
6.93529
10.274
4.48744
4.18646
7.81863
4.35123
4.57642
4.66838
4.06299
4.65864
3.94871
3.82608
3.89941
4.73954
3.64559
3.51238
3.67213
3.60867
3.42515
3.30348
3.379
3.4034
3.38558
1.90231
1.92138
2.03171
2.00718
1.99162
2.1517
1.85939
1.81226
1.95122
1.91766
1.84814
2.17792
1.95912
2.06611
1.94975
2.08796
1.95559
2.03125
2.00455
2.38887
2.22901
2.01988
2.16244
1.94555
1.90912
1.8896
1.70301
1.58605
1.53776
1.72951
1.80861
1.53635
1.53852
1.67891
1.67316
1.54031
1.64645
1.59709
1.60224
1.61484
7.41549
7.3199
8.75631
9.02825
8.22916
8.67592
8.0758
6.93932
8.04403
7.82744
6.96201
7.23387
7.22546
6.58653
9.51096
7.82655
8.49555
3.93819
3.45638
3.94972
7.64148
6.31721
3.45917
3.74939
3.73727
3.29872
4.6176
4.85206
6.88606
3.00192
2.93111
5.11348
6.45834
2.50952
2.64364
2.62531
2.64599
2.91248
3.87353
2.82128
9.49265
7.33567
3.31704
3.15268
4.71731
5.6158
8.24415
6.02259
6.27054
7.11851
7.96053
15.0415
20.7798
10.646
19.8968
4.39625
7.4035
4.18706
1.80016
1.75278
1.8092
1.7528
1.64181
1.79435
1.71821
1.6945
1.79856
1.85119
1.79568
1.74802
1.69631
1.74997
3.17168
3.1311
2.7862
2.77518
3.9894
2.57751
2.75014
3.73727
4.34686
3.73692
4.6008
3.45278
3.05192
3.83695
2.46452
7.20441
2.13261
19.3013
22.6629
3.01873
19.3013
5.3473
5.16722
12.3379
5.63425
6.24889
5.18114
4.52768
4.32106
7.11976
4.68981
4.75321
5.66948
20.3892
24.2399
25.6152
20.3891
21.2788
21.4971
23.7097
19.6291
23.4732
19.5362
9.96468
10.6231
7.62734
11.7848
4.27424
3.88265
3.48863
4.77753
7.13031
8.72416
10.4077
9.97941
8.74465
3.6705
3.84238
2.75973
7.93897
9.47859
3.84079
3.73579
3.63093
4.0356
3.14276
4.19333
3.30077
3.25214
4.98964
12.2309
4.75784
3.23635
3.4205
12.2309
8.545
12.2309
4.92818
3.03975
3.04345
4.44036
4.91325
3.63281
7.99209
7.86939
7.45936
8.00198
7.59192
7.28376
7.67072
7.53968
7.08831
7.44911
7.15584
7.49488
7.77645
7.52954
7.15606
6.78073
7.01904
6.73887
7.22479
7.83346
7.80345
7.43223
7.68049
7.30118
7.21845
6.57658
6.01679
6.34088
5.99894
7.17158
7.21962
8.19366
7.80849
5.95677
5.97312
6.13715
7.04986
29.2621
29.9935
24.9809
23.6197
38.8024
31.9776
36.7122
30.9428
29.0104
45.878
35.6824
37.5601
37.1947
44.0146
58.1757
55.9073
4.68031
4.88233
4.87745
4.66361
4.62565
4.66517
4.68774
4.60759
4.80959
4.80303
4.55429
4.71632
4.56473
5.45177
5.19279
5.49232
5.47179
5.39649
5.10594
5.7675
5.53871
5.72592
5.4787
5.63794
5.76035
5.35195
5.50353
5.37226
4.87901
4.95204
4.7518
4.82819
5.15213
5.05799
4.73373
4.76097
5.10729
4.91602
5.00997
5.03953
4.93345
4.95732
5.09414
5.27018
9.95552
9.91011
9.72516
9.10054
9.25304
9.61143
8.94121
8.78241
9.22419
9.36962
11.2133
11.016
9.50924
9.18366
9.3196
9.39811
10.8513
9.75038
9.90971
9.72688
8.18203
7.96782
7.63451
7.30013
7.9024
7.76848
8.51734
7.88074
8.83123
6.6699
7.08198
8.56014
7.37636
8.10646
8.60051
9.41344
8.6617
8.60883
9.69279
9.82075
10.254
9.0308
9.49554
10.5627
9.09028
11.3921
11.9678
11.3379
9.9457
9.04533
10.5799
12.4012
11.0641
12.846
11.9842
12.1912
10.1505
13.5973
12.1908
11.1617
10.7182
11.5576
12.4233
9.96994
9.73118
9.56725
10.346
11.1201
3.23608
3.01205
2.97355
2.95402
3.38553
3.29138
3.24532
3.36894
3.4386
9.1708
9.56861
8.48096
8.51516
9.14901
8.34964
8.26151
8.69525
7.93404
7.77517
7.85445
7.82337
8.09409
8.87261
8.34274
7.89298
8.18576
8.3734
8.70676
9.2353
7.87521
8.60391
3.75002
3.80676
3.74433
3.75369
3.77436
3.91398
3.80847
3.65348
3.79259
3.70146
3.7882
3.66641
3.80212
3.62703
3.63545
3.66987
3.70998
3.67782
3.69969
3.67601
4.97582
4.76493
4.86933
4.67259
5.01375
4.76529
4.84402
4.94507
4.87486
4.78059
4.80886
4.62409
4.69078
4.73884
4.69821
4.92922
4.83513
4.95336
4.63367
4.82179
4.68674
4.92469
4.65127
4.51036
4.59509
4.61851
2.73824
2.9145
2.89096
2.7615
2.61986
2.6323
2.46384
2.56417
2.87222
2.51831
2.89767
2.69322
2.65121
2.40936
2.44415
2.66186
2.46841
2.46025
2.4635
2.47605
2.49645
2.53704
2.52542
2.66842
2.47349
2.52338
3.21457
3.26661
3.35506
3.34313
3.14666
3.18104
3.19815
3.73699
4.12042
3.65397
3.53635
3.23232
3.27978
3.30749
3.36935
3.3234
3.4753
3.28907
4.22229
4.29876
4.47487
4.25226
4.15758
4.38522
4.41786
4.1296
4.14529
4.24655
4.33307
4.14715
4.08453
6.4608
6.98332
6.53216
6.21299
6.53833
6.93738
7.44551
6.79613
6.74684
6.43049
6.58358
6.99572
6.63618
3.55041
3.02951
3.40423
3.47857
3.30306
3.17692
3.35708
3.39128
3.35471
3.62634
3.60196
3.48413
3.60427
2.47621
2.21154
2.21923
2.22819
2.236
2.44627
2.34826
2.44488
2.24056
2.22721
2.30029
2.31238
2.2358
2.23712
2.27983
2.23191
2.1772
2.22126
2.31069
2.32013
2.24879
2.27329
2.45195
2.43579
2.68892
2.29855
2.38794
2.35273
2.31503
2.39912
2.35158
2.54108
2.52552
2.47915
2.46172
2.49236
2.55628
2.53687
2.4532
2.42944
2.51447
2.58442
2.48989
2.52011
2.59287
5.7514
6.12891
5.83365
4.83525
5.32934
5.05807
5.51158
5.13831
4.92749
5.06199
5.18349
4.74352
4.65644
4.91532
5.11149
5.29969
4.85459
5.10057
4.93836
5.15464
5.1715
4.87262
4.88053
5.00751
5.5657
5.75626
5.56335
8.14632
5.65044
5.34282
5.48271
5.45722
5.50808
5.79361
4.60787
5.02446
5.24627
4.89371
5.97981
4.51325
4.89432
4.99464
5.50976
4.80512
5.13402
4.85692
4.87987
4.9361
4.69557
4.6406
4.68206
4.87096
5.11588
5.02488
5.22726
4.83363
5.07148
4.50578
4.57032
4.31629
4.35304
4.51436
4.65042
4.63809
4.67355
4.97068
4.97404
4.66136
4.58141
4.7191
4.8277
4.76571
4.67383
4.83017
4.82197
4.76625
17.117
15.8026
19.7468
14.2138
14.5048
18.3704
19.8392
16.3798
18.5605
17.3106
14.483
18.6683
15.6264
4.15067
4.23238
3.96204
4.03805
4.09562
3.88366
3.83486
4.02306
4.03879
3.94053
3.88637
4.2618
4.13696
3.85676
4.08744
4.05205
4.54253
4.10576
4.70469
4.50856
4.05302
2.38335
2.40307
2.3825
2.43363
2.43179
2.40298
2.47486
2.47307
2.43322
2.3646
2.51112
2.54048
2.36914
2.42203
2.38226
2.41915
2.45323
2.48218
4.13961
5.08475
4.19999
4.48125
4.48751
4.73134
3.46482
3.42779
4.74969
3.4995
3.64283
5.21077
3.75251
3.503
3.62387
3.48529
3.4617
4.12628
4.44473
3.36899
4.30147
3.5771
3.48476
3.40251
4.01715
4.39288
4.42732
1.76828
1.83346
1.848
1.73898
1.8601
7.91377
8.61187
8.39514
6.07955
10.1915
6.1832
12.0457
13.3251
14.0679
11.9938
15.2857
12.3703
11.4144
13.0492
7.66065
6.73955
6.90526
6.66227
6.58334
5.61127
3.59948
4.03607
6.38741
5.78913
3.45193
3.32214
6.48804
6.46489
3.65706
3.39426
3.7493
4.15822
4.22215
4.97907
6.43521
7.4563
6.70728
9.85024
13.1709
2.05428
6.67909
3.31916
4.38623
19.0016
31.8365
22.3033
22.3513
9.88909
4.71847
8.12024
20.5596
18.6897
6.95593
4.84946
5.11369
4.22185
4.05397
4.18976
3.86362
3.98606
4.50101
5.56552
5.21686
3.57594
4.32158
5.09822
4.42975
5.06167
4.01118
4.80849
4.66846
3.6684
3.70873
4.64926
3.44583
4.55376
4.96308
5.31983
4.96206
3.53244
3.41127
3.55179
3.60733
4.05806
4.01076
8.56486
9.9801
9.66646
9.26902
9.59154
9.32866
11.5923
8.80079
10.1929
10.573
6.80329
6.78009
6.92162
7.9931
9.82074
7.32074
10.2625
9.9397
6.45383
8.214
4.75612
6.41846
3.65185
3.63906
3.62673
3.58628
3.58231
3.51755
3.6011
3.64291
3.61154
3.61018
3.55728
3.50598
3.50195
3.61653
3.59602
3.54364
3.5676
3.54137
3.45853
3.50805
5.72809
5.92466
7.03321
4.63236
5.6134
4.7592
7.17203
5.09522
5.51725
4.4559
4.519
5.46248
4.6716
4.51321
4.8776
9.11133
9.11735
8.94602
9.63561
10.255
8.26507
9.59744
9.39815
3.03251
3.14628
3.1118
3.13792
3.09904
3.09396
3.13062
3.21192
3.05485
3.0535
3.15676
3.07198
3.56639
3.66239
9.81454
5.39253
3.39855
4.03266
9.30613
6.93176
9.54855
10.0337
15.1728
7.49381
11.5027
17.3162
7.14917
4.45756
4.44237
4.87536
2.98503
3.03242
2.99994
3.01361
3.07628
3.02989
2.99138
3.16012
3.07815
3.07082
3.12366
3.18192
3.04575
3.03323
3.06269
3.16988
3.22139
3.09897
1.84431
1.85191
2.04096
2.10027
1.93244
2.06146
1.84264
1.86281
1.91268
2.16245
1.9895
1.90148
2.36549
1.93783
1.93745
2.01668
2.04208
1.89399
1.89912
2.09702
1.96985
1.88131
15.8218
14.4446
16.3215
18.9302
15.1676
18.0684
15.9105
14.357
17.0402
18.8467
18.4813
17.0428
16.7725
15.6443
17.0029
15.2548
8.50577
8.12793
8.198
9.34382
7.37972
6.92773
7.16595
6.52238
5.19073
5.22902
5.53161
5.50515
6.17671
5.01894
5.35978
5.65987
5.61059
5.9358
2.27838
2.69395
2.62643
2.30908
2.12652
2.04599
2.34206
2.41907
2.40805
2.29091
2.16507
2.1812
2.10918
2.07312
2.23404
2.12427
3.90796
3.87926
3.95658
3.89877
3.74478
3.89997
3.88273
3.89837
3.92137
3.90831
3.87223
3.92493
3.91107
3.8853
3.83308
3.82968
3.79794
3.79347
3.74091
3.75253
8.83048
8.62837
7.62218
6.66289
5.10338
7.20227
5.85714
6.32495
6.7408
7.94652
5.16212
4.89228
5.91508
6.1433
5.41315
5.73715
3.67495
3.68535
3.33107
3.42358
2.96242
3.43124
2.80138
3.26981
2.82751
2.60958
2.76888
2.60436
3.56395
3.0363
2.56675
3.26023
3.9417
2.14898
2.05986
3.43812
3.23485
2.97386
2.01332
1.93052
2.64161
3.11068
2.27162
2.15888
2.62481
2.81885
2.8366
2.83953
3.07409
3.12125
3.07583
3.13754
2.80037
2.88274
2.68695
2.75888
2.79114
2.7454
2.99362
2.98777
2.72304
2.87915
2.95376
3.64125
3.84259
3.33798
3.12489
4.29861
3.89486
3.41676
3.42113
3.86432
3.12915
3.17365
3.07158
3.09667
3.25122
3.27196
3.11703
3.2351
3.1376
3.59493
3.23406
3.20371
3.22899
3.29418
3.30366
3.26223
3.19636
3.31778
3.29854
3.23819
3.31417
3.2293
3.2431
5.92374
5.62345
5.68678
5.82428
5.5644
5.7453
5.84491
5.76468
5.67885
5.69861
5.67656
5.5191
5.50291
5.50664
13.3012
13.646
17.8938
17.4823
18.3742
18.4896
13.2105
11.8365
15.4258
16.3629
13.5921
16.5855
14.4299
15.0461
1.8959
1.93513
1.979
1.96791
2.25148
2.39499
2.26423
2.40811
1.96203
2.18059
2.14903
2.14078
2.25279
2.11982
2.00554
4.84808
5.58345
3.89636
2.39923
4.19792
5.56813
5.95287
3.61033
4.00491
3.64455
3.67824
4.0223
3.70932
3.7732
3.62204
3.49273
3.74188
6.58171
6.49826
5.23293
5.68748
4.14597
4.03722
5.1551
5.69483
3.87255
3.73081
5.40338
3.98643
3.81035
3.87787
3.61478
3.71802
3.68995
3.77284
3.61617
3.55525
3.62209
3.48493
2.79967
2.81068
2.97205
2.97837
3.05276
3.57104
2.74602
2.75894
2.74814
3.12499
2.68239
2.60536
3.49338
3.27427
3.08972
2.87704
3.41183
2.58854
2.4233
3.58138
3.39946
3.39372
3.15458
3.63702
2.36779
3.03455
2.48563
3.43948
3.70451
3.17544
3.49476
3.87496
4.06717
3.4951
4.04489
3.83673
4.16647
3.96484
4.27223
4.24309
4.13915
3.47837
4.04027
3.23654
3.28461
3.94404
3.7299
3.59062
3.42705
4.09001
4.12694
4.18389
4.11961
3.98388
4.09974
4.00589
4.03884
4.05145
4.03229
3.96907
3.98367
3.99013
3.94579
4.03854
4.04524
3.981
3.94746
3.9552
3.93442
6.87262
6.59249
5.31207
5.70195
7.31661
6.24538
5.53013
6.54036
4.93002
5.04738
5.01184
6.73555
7.84086
7.42841
7.49789
7.55199
7.66617
7.45452
8.01925
7.87191
7.32846
7.36674
7.04941
7.10356
7.03797
7.95674
7.65236
2.24271
2.31352
2.26178
2.24174
2.99344
2.97495
2.91512
2.75067
2.77679
2.41799
2.61147
2.16658
2.19327
2.51789
2.52264
2.38649
2.86333
2.85661
3.24562
3.04732
2.90342
3.77641
3.72415
4.24284
4.0665
3.50439
3.9087
3.63876
3.95974
6.78825
6.087
6.27054
5.8892
6.40931
7.71943
5.98062
6.06878
5.89748
6.15485
6.5686
8.00464
6.11821
14.4423
15.2024
15.0359
12.5247
13.4619
12.6812
11.8913
9.10068
9.89121
15.1418
14.5688
15.805
16.0942
9.95999
9.18864
13.6295
11.3113
9.76807
11.2249
13.7831
4.75164
4.73036
4.62397
4.70694
4.5285
4.46137
4.9382
4.58275
4.64775
4.57484
4.92958
4.64585
4.66111
4.90634
2.75503
2.11911
2.16811
2.16401
3.76314
5.56432
3.02505
2.80893
3.55708
4.02345
2.19754
2.43218
3.31512
2.85431
2.08179
3.24042
2.64982
2.2428
5.70012
6.04246
4.5461
4.55367
5.69188
5.93475
5.58533
4.67259
4.72469
4.81904
4.67044
4.65297
5.78401
6.08606
6.4231
5.6625
6.1366
5.54473
5.53
4.97458
29.2106
6.7407
13.7034
6.8849
9.28446
2.47625
2.43048
2.66639
2.80019
2.31801
2.41593
2.3411
2.29426
2.86928
2.65717
2.58207
2.59734
2.30213
2.44742
12.0226
12.1979
12.7954
18.1856
15.6336
17.9724
6.04101
7.59739
11.6591
15.3784
5.99647
4.75957
4.86659
4.94684
4.87887
4.61912
4.63338
4.75322
4.73253
4.8617
5.00756
4.87166
6.91038
7.07992
8.30059
7.8955
6.43391
6.01617
6.17123
7.63288
6.67315
6.18844
6.40724
5.75303
7.56044
8.20156
7.46497
5.59555
5.71531
5.49849
5.43723
5.62328
5.50266
5.21952
5.32287
5.27432
5.27784
5.52328
5.78663
5.38976
5.49657
5.43259
5.38222
5.69081
5.82831
5.40147
5.62243
5.50815
7.68787
7.31254
7.32094
6.92094
6.70363
6.26858
7.56203
7.97393
7.15276
6.5018
5.91423
6.76921
5.78552
7.22076
5.79985
6.94492
6.36847
8.25922
8.20168
7.92483
7.80347
8.50431
8.90412
8.37006
9.43682
9.81014
8.78559
8.24083
9.13391
8.5541
7.49033
8.16019
9.08427
7.98527
8.27742
7.70466
8.35204
5.81795
5.95471
5.76241
5.85162
5.58822
5.78119
5.94015
5.68661
5.73512
5.89855
5.88057
5.90909
6.11928
6.13172
2.67721
3.01826
2.83943
2.98816
2.93676
2.82451
3.43985
2.8022
2.8844
3.00224
3.7624
2.98873
2.85284
3.89718
3.24579
3.79915
4.30434
2.86657
3.16701
3.53809
5.53803
3.75373
4.68434
3.2797
4.81201
1.90178
1.92392
2.0793
1.9044
1.99444
1.95473
1.89263
1.99252
2.02756
1.93742
1.85267
1.84559
1.90149
1.85286
1.90494
4.04581
4.11285
3.57271
3.31531
9.98144
11.1262
3.28532
11.6963
3.7115
3.94809
3.71285
6.53815
5.73571
10.5776
12.2083
8.2589
9.60739
8.51375
5.6414
5.93198
5.72794
5.59743
5.95544
6.63239
6.37871
6.1548
5.73377
5.56966
5.65119
6.26583
5.82755
6.5609
6.06499
6.75587
5.86959
5.78547
6.39172
5.93219
6.23185
4.59112
4.50169
4.51977
4.49748
4.51821
4.51817
4.59155
4.61255
4.54216
4.55435
4.61063
4.704
4.81135
4.72855
4.68798
3.6212
3.68633
3.6419
3.62912
3.67834
3.74935
3.70811
3.60174
3.9468
3.76209
6.73764
6.88771
7.15974
6.9595
6.5423
7.07212
7.52627
7.31872
7.31354
6.85039
6.7438
6.99201
6.14678
6.36741
6.84637
6.16267
6.71813
6.05799
5.75733
7.31353
6.6032
5.99336
6.45756
6.06474
7.59775
7.02275
6.56018
5.68658
6.08613
7.20269
7.50551
6.45215
2.91078
2.99254
3.01622
3.01097
2.47852
2.756
2.46047
2.43627
2.42265
3.12373
3.22766
3.01236
2.49208
2.71419
3.25989
44.3256
15.0117
20.9645
10.039
17.8876
35.763
31.759
26.3135
12.9729
11.5571
10.039
23.6695
15.8534
14.8692
27.3254
4.9305
4.78695
4.91723
4.86948
4.71295
4.83343
5.35427
4.94564
5.69889
5.0828
5.46507
5.02359
4.90099
5.11044
4.97699
4.80537
4.81367
4.86832
5.03564
4.67636
4.62783
4.96793
4.865
4.95644
4.82727
4.80695
4.84429
4.68594
4.74287
17.424
13.617
21.3134
33.1291
24.5735
19.8937
17.1244
38.9657
19.7662
3.11086
2.88284
3.18956
3.15177
2.84861
2.86093
3.29597
4.04258
3.94034
4.96203
4.91123
3.59616
3.78315
4.63102
3.32103
4.21609
4.26628
3.33617
59.7752
66.953
81.1526
38.2172
64.7941
75.0801
105.353
101.137
45.0833
89.1244
60.307
61.196
85.1131
88.1007
122.341
124.519
212.202
76.592
92.2313
122.496
204.111
62.2217
65.9193
62.0282
81.1258
63.679
121.402
46.9804
46.1187
82.0665
62.524
8.64385
5.63626
7.07435
20.2517
8.33532
25.8473
4.85822
8.31531
14.593
7.9638
9.50524
9.27961
10.5356
9.53828
10.0884
8.89156
8.39372
9.69223
10.6126
9.7514
10.5904
10.4504
9.85923
10.2971
9.91203
14.9606
15.0231
15.2542
13.937
16.9698
17.1596
14.4038
13.2152
17.1581
14.783
15.3964
11.6
12.6538
10.7824
13.7011
9.10939
14.9643
13.1005
8.56181
24.9356
23.4656
32.8666
28.7014
28.0427
26.87
28.3119
34.7069
37.1003
35.9969
36.8165
41.8275
45.2178
8.35453
7.46802
12.8429
15.4892
7.93738
8.38676
14.7104
11.4495
7.49264
7.27923
11.8822
8.51015
8.07807
8.25229
9.65939
14.1131
16.1689
19.621
15.4201
19.0689
16.3763
10.446
22.8529
13.1767
22.5273
23.2147
22.4163
28.247
24.9016
9.44611
8.58879
20.6681
26.535
28.2292
20.713
3.34604
3.31282
3.22309
3.27849
3.29685
3.34258
3.37139
3.3226
3.18166
3.17855
3.32338
3.37202
3.27969
3.3752
3.35824
3.75602
3.57631
3.59051
3.25719
3.46303
3.61907
3.31911
7.35546
6.87527
7.19515
6.73984
7.13355
7.34076
7.8174
7.68979
7.34926
7.03721
7.12518
7.67447
7.11591
7.81524
7.50576
7.41162
7.17123
3.57262
3.7679
4.09054
4.07278
3.91035
3.70688
3.53855
3.5836
4.19208
4.4172
4.95735
4.90731
5.48407
3.23138
3.84198
4.0392
3.99253
4.3671
3.91724
14.8952
12.8703
8.22806
8.50962
7.71879
7.51565
8.46423
10.1991
15.9686
16.2845