/*--------------------------------*- C++ -*----------------------------------*\
  =========                 |
  \\      /  F ield         | OpenFOAM: The Open Source CFD Toolbox
   \\    /   O peration     | Website:  https://openfoam.org
    \\  /    A nd           | Version:  10
     \\/     M anipulation  |
\*---------------------------------------------------------------------------*/
FoamFile
{
    format      ascii;
    class       volScalarField;
    location    "8";
    object      p;
}
// * * * * * * * * * * * * * * * * * * * * * * * * * * * * * * * * * * * * * //

dimensions      [0 2 -2 0 0 0 0];

internalField   nonuniform List<scalar> 
75457
(
-45.9422
-41.5602
-38.1246
-34.4507
-29.1109
-31.595
-41.4549
-41.8334
-28.53
-22.3132
-26.1805
-29.2771
-29.0931
-26.2386
-5.5852
-6.08581
-5.94434
-6.09822
-6.49376
-6.01848
-5.51275
-6.22282
-6.24827
-6.70165
-6.44175
-6.86586
-6.43468
-1.31109
-1.29547
-0.758734
-0.672298
-0.593921
-0.650796
-0.992082
-0.533554
-1.43339
-1.29659
-1.29966
-1.60171
-0.695424
-1.04187
-0.69123
-1.11302
-10.8941
-10.4506
-9.89925
-10.0472
-10.4509
-6.13822
-6.70468
-7.06077
-6.49896
-6.59641
-6.71586
-7.15734
-7.18749
-6.87119
-7.09136
-6.47395
-6.75716
-6.5239
-6.42192
27.7804
28.0695
27.8036
28.1599
28.4229
28.4393
28.0677
28.1095
28.4112
28.1892
27.8775
28.1807
28.1647
27.8174
28.0515
-11.7247
-13.1671
-10.8237
-13.3035
-15.3689
-7.78831
-8.34475
-10.3716
-11.3892
-11.4712
-10.7229
-7.78852
-9.32146
-7.73445
-7.9685
-9.14996
-7.91122
-9.04887
-9.21779
-9.24615
-9.5927
-9.18009
-9.01767
-10.1952
-9.42806
28.9546
28.8451
29.1041
29.121
28.9893
28.8406
28.7597
29.2079
29.2101
28.8272
28.8364
19.7476
20.4005
22.8333
22.4113
19.8094
21.3655
21.3999
20.881
21.2306
22.8943
22.6809
23.2193
23.753
22.5205
21.9682
20.7866
23.1747
22.1861
11.3721
11.3435
10.7731
11.6402
11.2459
12.7444
12.4327
12.3256
12.3225
5.55445
5.10454
5.65721
5.20384
4.6497
5.14808
5.17246
4.23815
-9.41375
-9.45687
-8.86023
-9.05751
-9.44496
-9.10105
-8.80967
-8.32077
-6.78977
-6.84473
-8.37782
-8.10107
-7.64202
-8.33637
-7.22407
13.924
15.4979
15.734
15.078
15.4925
11.8257
13.1935
14.7311
13.7583
14.6956
12.0407
10.7563
11.332
-11.7177
-12.1896
-12.0525
-12.2671
-12.0159
-12.1818
-11.492
-12.17
-12.0369
-12.2661
-12.2507
-12.0741
-11.9957
-12.142
-11.0067
-9.706
-12.2182
-9.51927
-9.93751
-11.4427
7.32027
8.04049
6.62171
7.55841
5.70404
6.46977
9.00536
8.64574
7.80191
4.982
4.91218
-9.79518
-9.64173
-10.0462
-10.0001
-9.95344
-9.88215
-9.7166
-9.58545
-9.19009
-10.0235
-9.77475
-9.55171
-9.90976
-9.51449
2.8288
1.95173
2.31918
0.675697
1.21038
1.8475
1.60591
2.90257
2.4958
1.67128
1.01851
0.44244
2.60618
0.999683
-9.20085
-9.26863
-9.00172
-8.93691
-9.23536
-9.17048
-9.28022
-9.22439
-9.42484
-8.9414
-9.20433
-8.6781
-9.31031
-9.40787
-9.1371
-9.08474
-9.23994
-11.4602
-11.2591
-11.2579
-11.1813
-12.4803
-11.0423
-11.0425
-10.4155
-11.1178
-11.6911
-10.5907
-11.3789
-9.74063
-9.78589
-9.67932
-9.75115
-9.50258
-9.46319
-9.73652
-9.55713
-9.35455
-9.58336
-9.57228
-9.32534
-9.47816
-6.73374
-6.60293
-6.79296
-6.43507
-6.46662
-6.31387
-6.17269
-6.12739
-6.14382
-6.43388
-6.74322
-6.60087
-6.0526
-6.37206
-6.37274
-0.438338
-0.373411
-0.221185
-0.420874
-0.198072
-0.296571
-0.627561
-0.704061
-0.214746
0.123494
1.09242
0.327731
0.511965
0.952164
2.18494
0.667903
0.416016
1.24195
0.195795
0.51379
-0.0911875
0.321522
-5.10085
-5.70842
-4.43331
-4.51066
-4.76624
-5.1656
-5.71949
-5.28089
-5.62219
-5.71288
-5.57516
-8.36713
-8.46776
-8.61529
-8.57112
-8.50985
-8.30004
-8.32201
-8.67445
-8.87818
-8.73695
-8.9573
-8.14679
-8.43744
-8.51561
-8.70535
-8.49749
-8.58522
-13.075
-11.7089
-11.045
-13.4114
-16.4597
-15.9826
-15.6144
-15.3702
-14.8211
-13.9562
-15.7438
-4.17412
-4.6042
-5.14153
-5.01066
-4.7
-4.7939
-4.30189
-5.18692
-5.04153
-4.70409
-4.58424
-0.266977
-0.214518
-0.410006
-0.521647
-0.179206
-0.155558
-0.464496
-0.207118
-0.572796
-0.647379
-0.651863
-0.247075
-0.479983
-0.969854
-0.943745
-6.16082
-4.71384
-7.51876
-5.97037
-6.14434
-9.1066
-9.51891
-9.06143
-9.39158
-9.52477
-9.09256
-9.91199
46.8094
51.5776
40.2012
42.8778
45.6205
47.5895
47.3776
50.1941
42.5866
47.0342
45.4291
46.381
42.2815
46.7643
41.2308
42.5554
44.4828
39.6164
31.5115
31.0545
31.7186
32.3994
33.314
34.2243
31.7632
32.433
34.7862
38.1502
34.937
35.252
37.0228
22.6408
19.8823
17.4995
19.1578
23.5023
20.2161
18.8033
20.279
19.9248
18.0139
25.2149
25.2346
18.619
20.1482
17.5216
23.5699
25.7284
25.8929
22.008
21.9291
22.5586
23.7921
-10.9101
-11.3638
-11.5568
-11.5539
-11.649
-11.0399
-11.1098
-11.2502
-11.4277
-11.0222
-11.4384
-11.0272
-11.1519
-11.1339
-11.2264
-11.2048
-37.366
-41.7842
-24.3594
-30.925
-22.8724
-30.6782
-28.5988
-25.8715
-22.4524
-28.5368
-46.67
-41.1837
-27.0586
-36.9578
-23.6093
-24.7366
-0.204166
-0.359325
-0.198367
0.637618
1.01802
1.61531
-0.54995
-0.884245
0.770526
0.744897
1.621
1.27692
1.00238
0.923506
0.761948
0.113254
-0.620647
0.193843
30.7083
35.0078
33.619
29.9863
31.3291
34.1426
37.5765
36.6105
31.7625
37.6577
39.4165
37.5996
33.7666
30.5182
31.3115
32.1732
23.8407
23.2152
23.7225
23.5015
22.7008
24.417
25.0013
24.407
23.7673
24.7445
24.1817
23.3727
24.213
22.6532
23.3207
24.8333
25.3131
10.104
9.9372
9.63337
9.9738
9.9566
10.0352
10.2126
10.2295
10.2083
10.0891
9.75499
9.82271
10.2697
9.97667
10.12
9.38924
9.43599
-6.54896
-7.61848
-9.42604
-8.37137
-7.30261
-7.43619
-6.80407
-6.8856
-7.94697
-7.62382
-9.18909
-9.45987
-8.17941
-7.15782
-9.32177
-8.10888
-8.08776
-8.94233
-5.47071
-5.66057
-5.30836
-5.37383
-4.88023
-4.93192
-5.08884
-5.05664
-4.48645
-4.74018
-4.94182
-4.4957
-4.32447
-4.82579
-8.37605
-7.65828
-8.7124
-9.42693
-9.5689
-9.09327
-8.77371
-8.4708
-8.32237
-9.77708
-9.55057
-9.50102
-8.67774
-8.06192
-8.45323
-9.30054
-9.30409
-9.57063
18.1086
13.8665
14.6899
21.6187
17.9389
12.0291
14.8564
15.3063
11.7391
20.1245
15.1152
12.2974
-9.83889
-9.57355
-9.274
-9.09238
-9.42167
-9.47264
-7.80978
-8.28485
-9.53159
-9.48197
-9.42123
-8.48142
-8.40241
-9.2444
-9.28763
-9.15719
-6.17607
-6.76311
-5.63024
-6.12084
-7.50194
-7.55514
-7.41871
-6.11066
-5.97758
-5.85941
-5.75406
-6.96571
-7.64172
-6.16749
-5.72042
-6.76781
2.43162
1.67727
1.01385
4.23344
5.13729
2.68865
3.37997
0.157179
1.756
2.44636
4.05327
2.95404
3.99666
4.80789
4.54784
1.45538
1.56341
2.84204
0.958149
-3.91545
-2.99836
-3.65481
-5.58918
-4.66097
-3.44385
-5.41999
-4.99171
-3.81554
-4.21103
-4.03318
-5.30112
-4.01436
-3.70259
-1.772
-1.52528
-1.91595
-2.36517
-1.92296
-2.32098
-2.12014
-1.90272
-2.4071
-1.86969
-2.22186
-2.15938
-2.74546
-1.82542
-1.93368
-1.83747
-1.6422
-2.29817
-6.052
-6.65996
-5.74473
-4.40785
-4.86622
-8.5429
-6.00784
-5.71274
-5.70286
-6.79467
-8.25433
-11.5326
-11.7748
-12.3481
-11.722
-12.2862
-13.2195
-12.0769
-13.2678
-10.3016
-10.2963
-13.3862
-14.2131
-13.5208
-13.0414
-12.2907
-14.093
-12.2659
-12.7729
-12.9125
-12.9711
-11.954
-11.4561
-11.5501
-11.2912
-11.4949
-11.1799
-11.3656
-11.3899
-11.3001
-11.1054
-11.1407
-11.3745
-11.1603
-11.3039
-11.1604
-11.2942
-11.2368
-11.2419
-8.60008
-9.09558
-10.6907
-11.0855
-9.45073
-9.95955
-10.8897
-10.9288
-9.64903
-10.7356
-9.79067
-4.94419
-5.26984
-3.83728
-3.31124
-4.2275
-3.23575
-3.65132
-2.82373
-4.00277
-3.80788
-3.94092
-3.54525
-3.70153
-4.03718
-3.76978
-3.65656
-4.07276
-3.94362
-3.29612
-3.87904
-3.61839
-4.0756
-4.05481
-3.52495
-3.52836
-3.74214
-3.18221
-3.65516
-3.40803
-3.1386
-3.49062
-3.07286
-3.43402
-3.62153
-3.16348
-7.98078
-8.15683
-8.07934
-7.98599
-7.58197
-7.13375
-8.0724
-6.78751
-7.65406
-6.40511
-7.03814
-7.46676
-7.81279
-7.15206
-7.16251
-8.53073
-7.56157
-6.77816
-6.63127
-6.52874
-7.6311
-7.74059
-8.06584
-8.08286
-7.24543
-7.33493
-8.50991
-8.09461
-7.78803
-7.05864
-7.28127
-7.21142
-6.96827
-7.38641
-7.49954
-7.88333
-6.79267
-6.99668
-7.4569
-7.90509
-6.85908
-7.12263
-8.43564
-9.42973
-7.7295
-8.46057
-8.18659
-9.69897
-7.58318
-7.43334
-7.49027
-8.24201
-9.24895
-8.79236
-8.98878
-7.73551
-7.52443
-8.43403
-8.14633
-7.31442
-6.9031
-8.29173
-7.49698
-8.35065
-9.38449
-8.75699
-8.37064
-7.88569
-7.83237
-8.81797
-8.95499
-9.64506
-8.37801
18.8792
19.5361
20.4855
19.298
20.1371
18.992
20.0546
18.8071
19.3371
20.3846
-10.886
-10.7654
-10.4216
-10.4903
-11.1264
-10.9726
-10.5437
-10.6461
-11.0832
-10.3588
-10.7579
-10.4756
-10.4749
-11.0201
-10.5033
-10.7626
-10.9356
-11.6735
-11.0519
-11.9543
-11.7227
-11.4775
-12.131
-10.9294
-11.7512
-10.9182
-10.6628
-11.6748
-11.9911
-10.8003
-11.833
-11.8787
-11.4989
-11.1094
-12.1187
-11.4921
-11.4956
9.53193
9.9452
10.6659
10.0456
9.71245
10.9041
7.40476
8.94858
9.17671
8.89041
8.19735
10.3363
9.74954
10.3258
9.43346
9.01315
-16.0578
-17.4072
-16.4598
-15.7941
-15.9206
-14.0771
-14.9341
-16.0182
-16.0276
-16.6461
-12.8183
-14.0094
-15.6516
-12.8474
-13.8057
-11.8514
-11.4834
-11.5644
-12.6102
-12.6426
-13.2663
-11.5803
-11.0266
-10.8977
-11.9321
9.04213
7.99096
7.65263
7.7706
7.71539
6.28197
5.97118
5.39974
5.49311
6.02126
6.10589
5.20667
6.82433
6.00672
7.68027
7.79632
5.92286
7.00322
6.57621
-10.2066
-10.1546
-10.983
-10.3344
-11.7774
-10.3742
-9.90037
-10.59
-10.738
-10.2571
-10.1804
-10.9296
-11.1488
-11.6341
-10.94
-10.5643
-10.32
-11.2634
-10.9411
-8.78754
-9.78957
-9.61196
-9.33572
-9.07355
-9.77773
-8.89399
-8.62134
-10.0703
-10.0554
-10.6361
-9.92065
-10.4032
-10.3075
-10.6933
-10.5185
17.7114
18.2563
17.4754
17.3197
18.4236
19.3783
19.3791
18.3385
18.2478
19.1007
19.315
18.3446
19.3921
19.8894
20.6293
20.0206
-14.0094
-16.1812
-12.8911
-13.2029
-15.8513
-18.2785
-9.92283
-10.8187
-12.6338
-14.8561
-12.4187
-13.2585
-14.8324
-18.0797
-16.4318
-11.3613
-15.1225
-12.8452
-15.2452
-17.7337
55.5182
49.5257
45.2762
44.9477
53.9974
55.267
48.7616
53.5756
47.7646
49.7758
47.3535
47.8658
44.6446
44.5089
50.2372
18.348
17.0042
21.6677
23.2632
21.1077
18.1081
23.5266
20.0826
22.5032
25.7863
24.6744
25.9125
27.7028
25.4608
-16.5719
-17.3125
-16.8736
-17.6232
-15.7024
-15.9748
-14.3494
-13.207
-15.5716
-15.5136
-13.691
-13.2202
-15.9994
-14.2656
-13.9515
-14.57
-7.00841
-6.68357
-6.80031
-6.94209
-6.62683
-6.99545
-6.68663
-7.05507
-7.22522
-6.48737
-6.4936
-6.49591
-7.1256
-6.96183
-6.52633
-6.78292
-6.70316
-7.09917
-6.86454
-11.683
-11.5889
-11.2818
-12.1567
-12.2276
-12.0721
-11.3061
-12.1945
-12.0221
-10.5913
-11.2297
-11.1609
-11.4015
-11.1506
-12.3517
-12.0785
-10.9754
-11.4072
-11.1951
-11.2565
-10.9739
-11.0328
-11.473
-10.9113
-11.056
27.3002
26.4303
26.4754
26.9682
27.153
26.7161
26.4856
26.5402
27.2608
27.0342
27.1097
26.8364
26.9778
26.7377
27.08
27.1377
27.1242
26.9026
26.5399
27.2208
-8.8102
-9.61272
-8.75244
-9.24407
-8.73197
-8.42673
-8.5789
-9.34351
-8.3567
-8.65703
-8.85964
-9.0452
-5.96309
-6.03205
-5.53413
-5.36046
-5.1404
-6.01402
-6.00641
-6.15911
-5.85143
-5.35848
-5.30971
-5.62234
-5.73011
-5.29272
-5.47971
-5.46546
-5.63281
-5.49075
-3.60781
-3.40529
-3.67254
-3.39035
-3.55414
-3.94699
-4.02588
-4.17078
-4.24536
-3.45362
-3.93807
-3.57497
-4.28535
-4.11408
-3.77706
-3.59384
-4.29192
-3.92632
-3.52103
-2.81454
-2.95639
-3.15535
-2.26498
-2.83933
-2.5472
-2.34953
-3.45906
-2.86034
-3.48984
-3.47428
-2.5547
-2.46197
-2.75117
-3.59609
-3.60944
-6.95263
-6.6457
-7.066
-6.82859
-6.17173
-6.02561
-6.16698
-7.24921
-7.39198
-11.1169
-10.9106
-10.9279
-11.117
-11.2919
-11.2801
-11.0848
-11.3514
-11.0266
-10.9719
-11.2603
-11.0539
-5.63744
-5.43482
-5.66114
-5.64414
-5.59616
-5.7955
-5.73753
-5.91454
-6.00091
-5.74909
-6.27269
-6.14574
-6.12996
-6.24296
-6.05857
-6.21128
27.4139
27.5839
27.3755
27.0975
26.7057
26.7094
26.2982
26.244
26.5434
27.1088
-8.4053
-8.17775
-8.4262
-8.18182
-8.51506
-8.38235
-8.65069
-8.60786
-8.77073
-8.76406
-8.54579
-8.36235
-8.58426
-8.92022
-8.86061
-8.64043
-8.6002
-8.53735
-6.75127
-7.09025
-6.66289
-6.78983
-6.73494
-6.68933
-6.93687
-6.69669
-6.89051
-7.37677
-7.11317
-7.15828
-6.90658
-7.1149
-6.63498
-6.77646
-6.98937
-6.75946
6.60379
5.97714
5.41847
6.37762
4.52613
4.00645
6.9757
6.46141
5.17328
6.6511
5.66821
4.76557
5.49058
5.52016
27.6935
27.5958
27.4587
27.2909
27.7481
27.3205
27.1375
27.1727
27.4892
27.2974
27.4932
27.6194
27.1689
27.1398
27.028
27.0686
27.458
27.25
27.4079
27.1663
40.6908
39.214
32.6236
35.7866
25.0565
29.4301
14.8326
30.5313
30.8241
28.1781
33.8631
23.8158
35.3374
40.3467
36.3282
43.7234
25.6737
36.8228
32.3211
-14.0722
-15.183
-10.7533
-9.81269
-14.7737
-17.8063
-17.8606
-20.641
-10.5991
-10.6917
-23.427
-19.9872
-13.3426
-16.7948
-19.4959
-13.7855
-14.3124
-20.9215
-16.9135
-17.6228
-1.66026
-2.32418
-2.12068
-2.39206
-2.71449
-1.98691
-3.34919
-2.52293
-2.68531
-2.60615
-2.35016
-2.35386
-3.04491
-2.20051
-3.33902
-3.19069
-3.12865
-3.03882
-2.35482
-10.9358
-11.682
-13.1793
-13.4993
-13.8796
-13.3664
-11.1941
-11.6896
-12.8674
-9.75418
-11.4789
-11.9918
-11.5222
-12.3908
-12.5443
-12.5841
29.7869
29.738
29.604
29.6805
29.9493
29.9654
29.8441
29.8703
29.6818
29.5499
30.0595
29.8358
30.0022
29.9994
29.6308
29.5487
29.7124
29.8791
30.0105
29.6131
-2.27339
-2.41887
-1.85549
-1.4384
-4.36239
-4.44799
-4.87297
-5.7265
-3.64254
-2.25447
-1.88356
-4.36459
-4.70938
-5.23436
-5.95836
-5.84574
-3.53697
-5.34538
-5.10009
-4.04554
29.7788
29.6417
29.7237
29.7663
29.7557
29.7875
29.7125
29.8369
29.9044
29.9205
29.991
29.6878
29.8507
29.8381
29.9395
29.924
29.8011
-6.13797
-6.08197
-6.22221
-6.49497
-6.41635
-6.12274
-5.86964
-6.24307
-6.36173
-6.63662
-5.93261
-5.49424
27.7158
27.5376
28.0935
28.0999
27.8474
27.8003
27.4408
27.6549
27.899
28.0543
28.0965
27.7262
27.5387
27.6588
27.4666
27.6606
27.4532
27.7275
27.7934
27.4511
27.6985
21.0558
20.6154
20.7085
21.1304
21.1891
20.353
20.7526
22.4104
22.5917
22.3841
21.6664
21.3192
20.9316
20.852
20.9088
21.5822
21.4927
21.4714
7.16622
7.42166
7.50192
7.08981
7.34931
8.04494
7.68969
7.72717
7.47925
8.62172
8.45113
8.69674
8.52998
7.60894
7.34146
48.2688
43.2036
37.4162
38.8574
45.1935
43.1671
54.5193
40.0145
46.9149
41.8329
54.1591
53.8951
49.6327
42.9908
-4.6998
-4.4214
-4.82895
-5.22152
-5.2877
-5.34984
-4.74061
-4.94966
-4.86617
-4.7365
-5.24162
-5.12338
-4.82275
-4.33381
-4.42694
-4.77668
23.8179
21.7817
23.3923
21.6116
21.2911
21.6674
22.0031
22.0597
22.894
23.3041
25.7222
25.2165
24.2651
26.5177
27.1044
24.5495
25.5881
28.9526
28.9036
28.4932
28.5989
28.6961
28.7604
28.9792
29.0207
28.4533
28.5764
28.9289
28.95
28.9091
28.7774
28.7363
28.9031
28.7002
-19.3597
-16.8894
-16.6183
-20.9002
-16.3046
-21.5605
-28.1876
-15.9068
-19.0155
-19.2814
-18.3172
-20.0221
-21.6709
-17.011
-16.9192
-16.7753
-13.3206
-14.8606
15.6606
15.3269
16.9669
16.6466
15.9006
14.615
14.9971
16.5716
17.0898
16.6846
16.4201
16.7438
15.0187
14.7707
14.1378
15.9909
14.8256
15.4383
14.4206
15.9406
15.2393
15.0014
-7.21714
-7.47548
-7.25501
-7.2017
-6.29524
-6.41022
-4.95263
-5.19375
-6.51863
-7.27152
-7.01178
-6.64647
-5.39746
-5.67393
-5.28148
-5.31464
-4.98674
-5.55857
-4.83743
-4.92683
-5.40456
-5.22161
-4.99088
-5.3277
-5.61011
-5.40307
-5.50705
-4.71067
-4.73977
-4.6355
-4.82178
-4.79723
-5.5297
-5.4882
-5.44954
-5.12993
-4.7199
-5.21753
-6.39623
-6.32221
-6.38768
-6.52632
-6.75882
-6.83448
-6.31761
-6.7158
-6.23725
-6.46054
-6.15644
-6.6972
-5.83752
-6.16109
-5.94834
-6.77245
-6.35129
-5.98245
-6.73636
-7.33575
-7.31348
-6.67004
-8.57668
-6.42353
-4.66633
-8.60098
-8.64557
-1.91129
-2.92118
-0.72232
-5.26224
-2.46961
-5.41289
-4.63331
-7.21596
-6.65355
-4.01224
-3.64098
0.461748
-2.08653
-0.763585
4.09703
2.5477
1.88119
2.35374
2.90669
4.50124
4.37206
3.4171
2.69834
1.90674
2.26303
2.35953
2.04913
3.07536
2.92818
4.01914
2.8203
2.08749
2.71344
-9.5284
-9.09386
-9.29216
-9.34201
-9.47127
-9.50899
-9.7011
-9.99908
-9.51417
-10.0818
-9.59497
-9.4151
-9.45645
-9.38684
-9.45038
-9.40547
-9.45257
-6.24014
-6.38723
-7.68483
-7.25695
-7.02631
-7.2844
-7.44794
-7.16993
-6.61691
-7.32495
-6.82657
-7.35549
-7.02655
-7.12434
-4.17701
-4.81384
-5.01349
-5.27615
-4.52906
-4.97858
-4.08756
-5.10876
-5.20841
-5.53724
-5.58321
-3.96986
-5.0944
-5.22004
-5.07381
-4.36658
-5.2523
-0.166274
-0.401528
-0.285953
-0.0495187
-0.182502
-0.294364
-0.294453
-0.275656
-0.169216
-0.285541
-0.525639
-0.599079
-0.835071
-0.673595
-0.211643
-0.386503
-0.766199
-0.727549
-0.714576
-0.716051
-0.356378
-0.155614
-0.724004
-0.137353
-0.353553
-0.317111
-0.521373
-0.657208
-0.347459
-0.46683
-0.40463
-0.119594
-0.15906
-0.436442
-0.724046
-0.346468
-0.386283
-0.689698
-0.212435
-0.384168
-15.638
-16.3755
-18.8963
-19.8155
-19.2402
-20.1536
-17.2088
-17.8883
-18.0234
-14.5995
-16.1079
-16.8852
-19.2138
-18.2947
-18.9161
-17.6226
-17.1803
-1.62063
-1.61707
-2.01056
-0.722263
-1.36137
-2.23454
-2.49948
-0.654988
-0.940371
-1.89497
-9.60588
-9.49706
-9.65513
-9.87741
-9.18707
-9.14843
-9.59759
-9.82871
-9.85641
-9.77603
-9.42826
-9.18559
-9.1924
-9.37916
-9.21665
-9.56348
-9.37377
-9.57907
-8.6395
-8.62512
-8.72299
-8.38942
-8.79281
-8.46903
-8.54225
-8.41808
-8.13699
-8.23753
-8.82055
-8.90816
-8.60191
-0.768114
-0.482868
-0.919827
-0.601213
-1.01485
-1.31797
-1.02075
-0.384989
-0.309677
-0.726795
-1.16142
-1.06757
-0.355701
-0.348978
-9.09022
-9.08609
-9.33006
-9.26538
-9.07065
-9.18185
-9.32281
-9.14481
-9.15407
-9.26277
-9.21727
-9.40711
-9.27616
-9.12568
-9.59344
-22.6591
-21.7071
-21.2866
-21.2848
-20.2147
-19.836
-24.3818
-23.1943
-22.4485
-23.3126
-23.731
-23.3322
-21.4045
-20.1764
-21.0382
-22.3905
-21.9869
-22.8214
28.8411
28.8366
29.0851
28.4441
28.5557
28.515
28.623
28.4469
28.7597
28.7391
-9.75908
-9.79861
-9.79632
-10.0135
-9.72509
-10.0104
-9.70268
-9.7806
-9.58906
-9.67537
-9.69264
-9.94305
-10.0031
-9.80646
-10.0322
-9.68653
-9.80274
-9.83545
-9.63231
-9.78524
-9.84026
-9.81513
-5.2634
-5.42221
-5.57794
-5.70846
-5.08872
-4.85246
-5.5525
-5.43461
-5.12901
-5.07497
-4.74463
-4.79001
-5.35806
-5.11873
-4.78389
-4.83771
-5.07808
-5.03997
30.4592
31.4339
32.678
31.3725
29.9899
32.4437
30.6034
31.5471
27.8776
29.7853
31.3415
28.5341
28.8453
27.5884
26.3316
29.4506
27.2828
26.1394
27.2056
31.0653
28.821
27.9436
25.276
30.6045
31.3989
32.8379
32.295
36.556
35.7511
33.1485
35.609
29.0104
28.0677
36.474
37.3733
34.2125
36.6342
29.6136
29.7303
29.781
29.5891
29.7039
29.5916
29.7741
29.7097
29.5521
29.6955
29.4926
29.5259
29.7608
29.6908
29.6982
29.7669
29.2239
24.9693
24.529
26.8259
27.9673
29.8529
27.9071
28.0155
24.265
23.5671
28.1588
26.0878
27.6015
24.7745
26.8209
24.6599
24.3844
25.5468
26.1089
25.1111
25.7923
26.835
26.6524
25.9927
25.2362
26.8837
27.2513
26.7028
21.9279
21.5466
23.7187
25.1619
13.3374
12.3767
22.3224
22.2506
13.0228
15.2632
17.7277
17.8367
19.3477
16.839
14.5813
12.4165
27.731
26.9008
27.2581
27.7756
26.9753
28.2956
27.8912
27.0925
27.1031
29.9229
29.4967
29.1656
28.617
27.5152
28.6493
28.0842
29.1226
28.5109
27.8705
29.4106
8.05931
9.79571
4.59571
1.71827
2.98059
5.67509
12.8626
4.73986
8.64532
8.60332
2.34586
7.36258
8.06282
4.97485
7.95288
14.5245
14.6357
13.0534
11.0705
9.41781
18.4182
15.5616
15.5442
12.7097
16.7303
16.8392
16.7908
14.0837
12.6828
13.7962
13.9477
14.6539
15.0181
28.7704
28.826
28.6102
28.5061
29.2083
29.1868
28.7075
28.5458
29.3715
29.3702
28.7746
29.0726
29.3503
29.3121
29.1972
-11.8982
-11.5924
-12.1736
-12.1808
-12.7244
-11.7726
-11.8542
-13.5121
-13.125
31.5013
30.6288
29.6332
29.593
30.3092
29.7309
31.9441
29.3899
33.1695
31.7446
29.5411
31.3936
32.0159
32.345
32.8307
28.645
28.9506
30.7177
32.8498
31.5238
29.1189
29.988
3.28808
3.98709
3.44224
1.38234
2.43261
3.4341
0.394786
1.69579
1.983
-0.063725
1.09231
-1.07085
-0.0833844
-1.15571
-1.60387
-0.927981
0.286668
1.91335
-1.9212
0.776112
27.6186
25.9821
30.6188
26.2386
28.0773
34.6833
31.9965
28.1324
31.9195
27.2788
29.6752
35.4956
33.3178
34.0884
37.5565
30.9086
30.3414
28.5688
33.0582
26.9897
30.1821
27.9719
31.6773
36.1769
37.083
35.0888
-8.68867
-9.56871
-8.99433
-8.63712
-9.01674
-9.39856
-9.26746
-8.94917
-9.82966
-8.86696
-8.98935
-9.31683
-8.71928
-8.68509
-8.59709
-8.84498
-8.76379
-9.32819
-9.11572
-8.59674
-8.68491
-8.69049
-8.6268
-8.8374
-8.65426
-8.85234
-7.52601
-7.28547
-7.97832
-8.45838
-7.45424
-7.65603
-7.41949
-6.6384
-8.42273
-5.92666
-8.24209
-7.11904
-6.65204
-7.21473
-8.02676
-8.07783
-7.63712
-7.34157
10.1394
9.66963
6.33811
8.16678
6.91763
5.04165
1.75883
6.18777
6.46471
4.15182
-0.546592
2.99974
4.45956
24.8947
25.6913
26.0313
24.6797
26.3524
26.1234
26.529
25.6809
25.7993
24.8197
24.9698
26.867
26.255
-12.8221
-12.6895
-13.6143
-13.0702
-13.1238
-13.7431
-15.1148
-14.5506
-16.0603
-13.8034
-14.0219
-13.7104
-15.0638
-11.3541
-9.94325
-9.78239
-10.2268
-10.4024
-10.9481
-10.8495
-11.0887
-9.81651
-9.82668
-10.4509
-9.82997
-9.4256
-9.86622
-9.8864
-8.79617
-8.58823
-8.707
-8.64439
-8.63486
-8.65457
-8.56286
-8.62734
-8.42521
-8.69808
-8.56369
-8.80587
-8.58327
-8.65583
-8.39044
-8.40748
-10.1282
-9.79705
-9.84503
-9.70358
-9.74996
-9.6547
-9.68783
-10.0056
-9.74284
-9.65464
-9.83675
-9.80687
-9.80435
-10.322
-6.93147
-8.71855
-8.97874
-6.74495
-8.27818
-8.52452
-9.17805
-6.57361
-6.46394
-7.32722
-7.37578
22.4011
23.9406
23.0445
24.1982
23.4494
24.3138
23.4342
22.6938
23.8948
22.9872
24.2922
22.1666
23.7088
31.9404
34.8391
37.2746
45.5537
43.4308
31.9208
49.1443
48.2958
35.4067
40.97
33.5189
35.6391
44.1828
48.1245
50.8562
38.9809
40.8154
37.7326
47.3692
45.3548
43.4968
40.5545
32.9102
33.0198
32.8175
31.5908
31.3797
30.0873
30.5451
30.8622
30.3045
29.2251
29.3429
19.4681
18.7949
18.5678
18.1228
20.5617
20.0595
18.4484
19.8137
19.0407
18.1578
17.3567
17.5845
19.2557
20.6948
20.8823
18.188
17.6306
19.8202
17.0896
31.1301
31.4152
31.3086
31.3068
32.0469
31.874
31.6634
31.504
31.4989
31.9037
32.653
32.3713
32.801
-11.666
-7.34693
-4.6163
-8.52012
-6.70863
-2.15817
-2.28133
-2.16958
-1.03068
-5.24896
-2.92805
-11.6118
-14.9524
-5.5745
-2.42932
-9.0186
-6.27779
-15.0043
-9.72409
-15.633
-8.60235
-8.74529
-8.54195
-8.81064
-8.81192
-8.44226
-8.64304
-8.77178
-9.07141
-8.78996
-8.74417
-9.08529
-8.87795
-8.69105
-8.78627
-8.74779
-8.69712
-8.37685
-8.82128
-9.27189
-10.2029
-8.88285
-8.37953
-8.54942
-9.76142
-9.05638
-9.23684
-8.25443
-9.03684
-10.0943
-11.6211
-9.3048
-8.96701
-7.96736
-6.45513
-8.35056
-7.652
-6.74803
-8.37996
-9.36441
-7.49043
-6.26881
-7.34665
-6.30435
-7.7189
-6.68827
-3.62367
-4.15333
-4.42354
-4.30025
-4.71402
-11.5643
-13.5675
-12.4099
-13.7691
-18.1321
-11.7095
-15.3437
-18.0102
-17.5369
-22.0292
-23.0057
-19.5629
-19.5066
-19.8983
-15.6594
-2.67043
-3.08704
-3.35456
-4.34799
-3.47919
-3.30833
-3.64722
-3.02355
-3.52342
-2.12389
-2.0716
-3.43775
-3.49733
-2.87014
-1.21998
-2.28441
-3.10765
-2.3989
13.4431
11.2583
6.50214
14.0349
-0.600188
-11.5637
13.5418
3.12152
12.7541
6.52786
7.39888
-24.5669
-18.3512
-37.5495
0.34437
-0.242546
-2.77159
-14.5744
-6.18637
0.218757
-19.6975
-19.2585
-19.3504
-17.8217
-18.2055
-17.0768
-16.9432
-16.7414
-18.1551
-18.3475
-16.3559
-17.0113
-17.5218
-16.6131
-12.5125
-10.9181
-11.6926
-13.2914
-9.20764
-9.92462
-11.2147
-13.289
-11.006
-10.6734
-13.2914
-12.1162
-8.48823
-9.22849
-8.38515
-8.99662
-9.02458
-9.33325
-7.79368
-8.88769
-7.9821
-10.6888
-14.0224
-9.44077
-15.3013
-13.4144
-15.3758
-14.7749
-5.29815
-5.84105
-5.59679
-7.74806
-9.72163
-10.1444
-11.8998
-12.0901
-6.72159
-9.49432
-6.93473
-7.0844
-4.8146
-6.53802
-6.66295
-6.12766
-3.15901
-3.22661
-4.31594
-1.30598
-1.35918
-4.5554
-6.69169
-3.6985
-2.60651
-1.30779
-0.792765
-5.13382
-2.64064
-2.98103
-4.47043
-3.18989
11.6611
12.2668
9.36773
9.71948
12.376
10.4765
10.04
10.6729
11.2156
10.6211
9.59324
10.172
10.2791
9.36286
12.1909
-13.1571
-9.73502
-10.8722
-12.1736
-13.6247
-12.4714
-9.87037
-12.975
-7.51458
-7.16497
-7.73385
-7.714
-7.8026
-8.09414
-8.05207
-7.43908
-8.04867
-8.1182
-7.65723
-8.3138
-9.16517
-8.75604
-7.55319
-7.63381
-8.82876
-8.68282
-8.83334
-7.94299
-8.58048
-7.48415
-7.97892
-7.08758
-8.37489
-7.98778
-8.51737
-7.78913
-7.52573
-8.1434
-10.2639
-10.0094
-10.5238
-10.2812
-10.1075
-10.5312
-11.1232
-12.433
-11.7775
-11.1265
-10.771
-11.4771
-11.4051
-12.218
-11.7254
-10.9393
-11.3825
-11.6742
-1.97309
-1.69998
-1.70455
-2.01688
-2.05045
-2.22088
-1.74298
-1.76827
-2.1466
-2.24432
-1.98026
-2.41607
-2.87529
-2.96296
-1.86459
-2.41686
-2.26865
-1.99642
-2.89267
-2.74653
-2.24745
-2.0899
32.0365
31.6922
32.1667
31.7904
31.227
31.8797
32.3968
31.3175
31.4461
31.3322
30.7469
30.4623
30.6766
31.6545
31.1628
30.9388
-15.2852
-14.6054
-13.7591
-15.5005
-16.4723
-14.9761
-12.751
-13.0846
-13.0402
-15.8911
-14.1399
-13.2891
-14.4751
-13.0546
-16.4295
-14.8134
-15.7958
-17.4044
-6.26667
-6.3912
-5.74988
-5.807
-6.06043
-6.36653
-6.34927
-5.50246
-5.57988
-5.25951
-6.50116
-6.65964
-6.16521
-6.51918
-5.77355
-6.39909
6.96611
7.69175
9.26495
7.71478
6.45943
8.48955
6.90132
8.90461
9.40441
7.53479
8.13346
7.97122
7.71954
9.22452
7.21843
5.64847
7.04021
5.59583
6.01664
6.98427
5.05358
3.28037
0.39964
0.362848
-1.18569
-0.865435
2.95425
-2.0642
8.25809
7.22028
-3.82093
1.90301
6.79291
5.26711
-0.833378
2.78141
-10.5493
-10.3661
-10.4286
-10.2482
-9.95684
-10.4056
-10.2997
-10.1201
-10.1087
-9.28217
-9.26774
-9.56108
-4.29936
-4.16682
-4.43561
-3.82846
-4.09735
-4.30773
-4.42574
-4.50916
-3.7111
-3.91871
-4.04603
-3.89907
-4.55908
-4.06732
-3.67812
-3.82772
-4.22072
-10.0505
-10.2483
-9.84232
-9.87055
-9.91295
-10.3154
-10.2544
-9.86626
-10.1873
-9.89078
-9.89857
-10.0541
-10.3771
-10.621
-9.90913
-10.254
-10.6737
-9.82724
-6.6829
-7.90103
-7.35432
-6.71443
-8.25491
-7.98295
-6.49668
-7.2834
-8.52079
-6.14937
-5.92988
-6.50663
-6.11705
-6.94628
-6.20598
-6.17117
-6.71821
-6.84119
-7.87993
-7.33053
-8.22538
-8.12223
-5.35301
-5.52209
-7.18875
-6.8855
-5.82693
-6.27153
-7.7595
-7.64239
-6.36319
-6.10489
13.2835
12.9558
7.52616
10.3516
12.2183
13.0298
12.8775
11.5777
8.71269
11.5721
8.45002
10.9788
10.846
9.3981
32.377
32.0225
30.8777
31.0754
31.1137
31.4556
32.1211
31.8412
30.7976
31.0002
30.9029
31.57
31.3923
31.9381
-1.73453
-1.58857
-2.10993
-2.0885
-1.98906
-2.2082
-1.84243
-2.04463
-1.80724
-2.19629
-2.38491
-2.25018
-1.73263
-1.90591
-2.31296
2.29316
2.57648
5.17983
5.32233
1.99107
3.37231
3.36936
3.69925
5.05072
5.24789
1.32293
1.65926
2.23608
2.81586
3.83923
2.54154
3.45303
-10.3996
-10.2249
-10.3579
-10.4286
-10.9085
-10.4574
-9.59189
-10.2956
-10.456
-11.1733
-10.4315
-9.21209
-10.0863
-9.57442
-9.34083
-9.01445
-9.93913
-10.8835
-9.94628
-9.51988
-10.4201
-9.12639
-9.0958
-8.40747
-8.3538
-8.68488
-9.65458
-10.2418
-9.00135
-8.85458
-8.92565
-9.80951
-9.41484
-9.35008
-9.47071
-9.83612
-9.33653
-8.4478
-8.50174
-8.41929
-8.51078
-8.21186
-8.23242
-8.0635
-8.25017
-8.09952
-7.78674
-7.93587
-8.01699
-7.95376
-8.26846
-7.83154
-7.93617
-10.5498
-10.5943
-10.6201
-10.7268
-10.0549
-10.7154
-9.95929
-10.6683
-10.5249
-10.3918
-10.1242
-9.98226
-9.21282
-9.65644
-9.45097
-10.0794
-10.173
-10.0914
10.4288
10.5997
9.64363
9.30565
6.61851
4.73813
11.5558
10.8581
3.8867
11.7697
9.2281
8.01571
5.19316
7.87845
10.2912
10.8466
9.51263
5.68417
6.95354
6.41026
6.08573
6.08632
7.32237
7.99102
6.80654
9.68526
9.48322
9.69096
7.97066
9.38179
8.49473
7.10227
26.0405
25.4219
24.7585
25.7713
26.9656
25.6573
27.1815
27.2329
25.8137
25.0606
24.146
25.7089
24.5323
28.3362
27.3607
-6.61287
-6.36444
-5.98732
-5.48093
-7.08619
-6.39569
-5.99678
-5.74902
-6.46895
-6.00214
-6.45524
-5.23556
-5.46279
-4.99504
-5.45517
-5.66964
-7.90672
-7.73568
-8.28615
-7.6798
-7.35337
-7.20559
-5.52437
-7.1409
-7.27898
-8.07044
-5.46668
-6.35293
-7.26914
-27.0752
-20.6632
-18.975
-13.2154
-27.0391
-32.3921
-8.50026
-15.9079
-12.5458
-18.0528
-19.5382
-24.1873
-21.6126
26.3498
25.2087
29.0007
26.6032
27.872
29.3092
27.3614
24.7702
22.7928
23.8712
26.4368
27.8187
26.8235
18.9615
20.7778
26.9096
26.3781
20.4918
18.9495
21.423
7.3625
7.234
7.06001
6.17437
7.13666
6.51238
6.20426
6.86111
7.17204
7.12078
6.67175
7.45948
7.2477
6.82176
-3.15242
-2.63899
-2.86584
-3.1098
-2.61861
-3.17562
-3.41053
-3.50975
-3.13026
-3.29833
-3.46604
-3.72295
-3.40315
-2.64513
-2.85629
-2.4972
-2.45589
-3.10806
-10.2948
-10.238
-9.72641
-9.97436
-10.9584
-10.7935
-10.2987
-10.5197
-10.1578
-10.8084
-9.47363
-10.079
-11.2518
-9.48642
-10.2902
-9.77884
-10.6048
-10.4941
-10.333
-9.84785
-4.11643
-3.5836
-3.34596
-3.7862
-3.79941
-9.35444
-9.11611
-10.6996
-10.5896
-9.64817
-10.1351
-9.36699
-9.56988
-9.86524
-10.0476
-9.25876
-10.1952
-9.54027
-9.31776
-9.07406
-8.79866
-9.13113
-8.66489
-8.95954
-8.30431
-9.56229
-9.33174
-8.92942
-9.48545
-9.12272
10.7899
11.1112
11.1243
10.8439
10.2956
10.1887
10.5862
11.0012
11.5242
11.5257
10.9653
29.9009
30.4678
28.8882
28.8566
29.8034
30.9939
31.4587
29.9483
29.9198
32.2563
31.2166
33.7901
29.7548
29.093
31.0264
11.8955
11.1075
8.23187
9.58738
9.0183
10.3993
8.77882
7.36705
7.54336
8.82069
10.4268
9.49532
10.8883
7.65895
8.18209
9.60807
6.03091
6.07317
8.08716
5.60571
4.36832
22.8148
23.8514
23.2848
22.252
22.6654
22.0444
19.4779
18.4814
16.8346
17.383
17.7065
17.5699
20.5827
20.5841
18.5183
19.1474
21.4234
37.4253
39.5768
39.9975
37.4637
36.5733
38.2728
37.4798
38.1942
39.5447
36.7874
40.4671
37.2629
36.2989
42.9201
41.5043
41.4232
38.076
41.1072
42.0881
38.5215
-1.9206
-1.21345
2.46465
1.31965
7.77113
-1.38336
0.0962162
5.25395
3.33296
5.7755
10.9719
10.3756
5.18845
8.64334
-11.565
-11.4553
-11.3405
-11.2231
-11.4841
-11.5999
-11.3169
-11.1882
-11.3803
-11.0982
-11.1868
-11.1036
-11.1084
-11.023
-9.57432
-9.2693
-9.18679
-9.52858
-9.10418
-9.51331
-9.14819
-9.60141
-9.34228
-9.48096
-9.35654
-0.249562
-0.19112
-0.375427
-0.531305
-0.852289
-0.254059
0.0130027
-0.37033
-0.282539
-0.460477
0.0735375
0.0584828
-0.247353
-0.0378622
-0.795436
-7.72362
-7.82806
-7.83017
-7.95286
-7.80315
-8.02889
-8.19744
-7.8936
-8.09152
-8.63067
-8.67388
-8.48792
-8.49761
-8.07476
-7.87921
-7.90714
-8.07082
-7.94533
-9.31084
-12.0036
-9.21914
-10.4909
-9.33993
-12.2635
-11.0976
-10.5322
-8.61252
-9.77607
-10.9039
-8.59744
-10.2595
-10.8384
-10.4679
-11.4361
-10.5009
-10.5461
-7.87314
-10.5812
-10.1875
37.5468
41.1862
39.7192
41.5211
37.5427
41.7924
42.6656
39.9759
44.1457
45.8194
42.3445
34.22
35.0988
39.5021
34.8711
1.82974
2.16792
0.184372
0.600754
2.504
0.694626
2.98548
1.32132
1.229
0.674823
20.0937
20.0485
20.6986
20.703
19.2883
20.519
21.097
20.9743
21.0105
20.9362
18.48
19.0141
18.7567
19.2857
18.9511
-14.6518
-13.7666