/*--------------------------------*- C++ -*----------------------------------*\
  =========                 |
  \\      /  F ield         | OpenFOAM: The Open Source CFD Toolbox
   \\    /   O peration     | Website:  https://openfoam.org
    \\  /    A nd           | Version:  10
     \\/     M anipulation  |
\*---------------------------------------------------------------------------*/
FoamFile
{
    format      ascii;
    class       surfaceScalarField;
    location    "8";
    object      phi;
}
// * * * * * * * * * * * * * * * * * * * * * * * * * * * * * * * * * * * * * //

dimensions      [0 3 -1 0 0 0 0];

internalField   nonuniform List<scalar> 
146459
(
-1.8594
2.60009
-1.20333
0.462634
0.820461
-1.09629
-1.58357
-3.22634
4.59286
1.23358
-1.07393
-1.33195
-2.33459
-0.799981
1.96598
1.16859
-0.552796
-1.78179
1.75613
-2.31579
-0.53662
6.85245
3.14482
-8.5946
-1.40267
-2.40562
3.83676
5.42131
-0.334732
-2.76641
0.794461
1.17197
-2.55737
-1.99083
3.2953
1.33593
-25.5392
46.8577
-23.9554
2.63692
-27.8428
19.7276
-17.424
28.0432
10.4621
-16.8534
-21.6519
54.5287
10.1025
-36.588
-13.95
-22.8845
8.99167
21.1482
-6.65677
-4.02933
51.9319
23.7451
-19.3285
-1.27833
-28.0391
-34.6276
39.7822
-10.6514
12.4157
-29.8033
-38.3347
8.35481
41.1267
-8.91513
-19.7959
10.4754
6.09499
24.5563
8.82723
24.2746
-4.53933
-28.5625
-0.269332
23.793
-14.6965
16.7327
6.39042
1.15148
-10.495
10.6941
16.5335
19.5902
-18.842
5.64225
-11.9074
22.5198
8.97775
29.15
-17.0843
31.312
-43.3778
14.3588
4.29631
-8.8977
23.0409
-14.4125
-30.5213
16.5997
-11.6487
-4.0918
8.78417
-25.8897
23.4859
16.7626
-10.4222
15.8445
34.1197
4.27478
-14.9085
9.30767
9.6414
-3.57408
-4.07676
0.763131
6.88771
-6.35195
-3.5907
6.36856
7.16702
-6.53756
-4.70622
0.520029
4.35929
2.2877
7.69424
3.4441
-10.6183
-18.0159
-17.433
20.5758
14.873
-17.7957
21.6702
-3.80034
-0.0740823
-5.03441
-0.394164
-12.3672
-15.5765
-1.26507
-1.17439
-11.5787
-5.47722
10.5882
6.46775
-3.97439
17.1465
8.498
-15.8586
-2.921
14.9792
-14.8673
-6.02568
-23.8002
4.52238
15.3034
-16.9105
-7.28383
2.76019
-17.1204
-3.07273
-8.8185
10.0363
-10.9911
-21.4584
-11.2385
-8.41512
-2.30131
18.1423
-7.42589
-8.19569
-0.782521
0.563092
-11.6954
21.6595
-12.2655
-8.45817
0.666461
-0.403976
9.35145
-1.06045
1.17183
-9.46284
-5.40568
6.29896
3.12837
9.00628
-8.95323
-3.18142
-5.64118
8.76955
11.0469
0.436686
-12.544
-0.803686
1.53988
8.27008
-0.321622
-11.354
12.8475
1.28177
-9.79831
-13.9155
1.41644
-12.9554
0.566033
-1.72631
0.341342
0.818934
-0.45567
-0.375137
1.39684
-0.886592
-0.428341
0.859263
0.13732
-0.383086
-1.48054
0.51566
-0.753478
0.180564
-1.19538
1.35615
-0.813372
0.107344
2.13008
0.228355
-0.892693
-1.46575
0.126921
1.4451
0.558063
-1.24646
0.945045
-0.322352
-0.695757
-1.68096
-0.44963
0.935214
-0.74302
-1.32103
0.551765
0.0439578
-1.04535
-0.583959
-0.155659
-1.40238
0.815018
-1.00439
-4.16311
10.2803
6.77348
-12.8906
-1.93971
-17.1734
5.55801
13.5551
-16.2801
10.1772
-9.8061
-23.6474
-6.39819
15.9908
-9.59262
-12.2195
13.7169
4.06062
7.84171
-24.0108
6.36301
-10.776
9.01541
-6.41736
2.46273
-5.06078
-0.616556
5.58746
4.0445
0.137301
-1.26065
-5.29401
7.95798
-1.61443
-6.20624
12.1904
4.96742
-9.19989
6.44625
5.12764
-6.9095
9.37223
0.327511
6.91367
-8.50183
-9.55513
8.26821
13.2398
-8.27238
0.00416908
-6.52397
0.865466
-6.28776
11.9463
-8.97619
-4.60882
7.06104
6.03543
-6.98869
9.84515
-8.89189
0.150786
5.88465
-7.48399
-7.39095
15.7404
-0.302908
-9.25647
0.583196
-6.59067
-4.17146
-10.6361
7.32355
-10.7398
1.95956
-0.0542464
-8.6597
-2.02589
-7.62418
-1.68654
-4.54031
6.43989
-9.52376
5.49122
-17.0202
10.745
-0.337064
-0.562805
9.23871
9.98055
-13.149
-0.992596
4.38098
12.8374
-9.87357
-7.34477
10.6456
0.441229
-6.70587
4.39498
19.088
6.52598
-12.0092
10.5815
-5.09825
-9.91711
20.8381
6.17664
4.93142
-23.0781
11.9701
4.72842
-10.561
5.18869
-10.1308
16.8179
7.00455
-15.45
-8.37247
-5.62993
16.2235
6.2243
12.1717
-3.89719
-13.9044
9.42628
-0.400002
-2.02172
6.77562
18.8742
-2.23874
10.8445
-9.00579
11.0307
3.22952
-2.08855
23.9071
-6.10074
-6.50289
-7.76256
-2.0829
16.3484
-12.8549
-8.98799
15.34
0.0310292
-7.79359
-12.8499
0.0260679
-1.16184
-24.4582
16.6321
6.53775
-19.5745
11.8749
-8.03767
12.4925
-20.4145
-10.1075
22.4843
12.5338
-27.7819
-5.16647
2.42638
-3.1251
-18.6301
-2.703
-12.368
-3.60698
-5.36721
-24.4956
-13.709
-10.8515
-6.88371
11.6849
-0.920776
-3.31117
-7.45293
-5.3337
0.143003
4.99243
0.198274
5.5702
-13.3984
2.49446
-9.41012
8.53356
1.01956
8.97025
-12.8102
-1.475
4.04796
9.11191
-13.4621
4.70946
7.27762
-0.921291
-2.44666
-10.0941
7.41728
-3.34563
11.1778
-3.12882
6.98555
12.7258
1.30617
10.1591
13.0012
0.104735
-6.19664
8.22846
-2.13655
-8.42739
11.2596
-2.72747
1.32216
-15.9462
-15.1864
-1.37223
13.6627
2.89597
11.8684
-25.7327
10.4962
16.7953
7.7332
-16.3
-7.53278
8.50318
15.8249
0.200424
1.19198
9.16653
0.901092
11.6024
3.25227
-0.0246421
17.6943
-10.6966
22.2743
-5.86888
5.31945
10.429
-9.87958
-8.12778
4.63998
-2.38109
-17.1515
5.56321
3.46054
-6.22574
-9.5253
21.0705
6.06894
-7.6547
-4.11029
-5.41501
-3.8655
1.5474
-17.0747
19.3928
21.0259
-21.6532
-3.23827
4.02274
13.6057
3.39748
16.7523
-1.83984
-13.3651
5.36646
19.2122
-7.8264
5.84571
12.1526
-13.9756
15.7
3.93881
-19.5892
-0.0495568
-2.04463
17.7446
-13.9662
16.0651
-1.32368
21.0517
-14.3615
19.719
-15.1969
0.812002
6.075
9.61932
-16.5063
4.42605
6.75197
-10.366
8.20548
7.1071
-10.8865
-2.90154
17.666
-6.55897
11.483
-8.30951
0.0523893
6.69958
9.6717
7.55795
-12.3216
9.35794
-4.59428
-2.52818
15.5063
-5.42016
0.161212
6.94589
0.982449
-1.8211
10.6542
6.86079
14.9868
11.8409
10.1341
-4.84186
-17.1331
-4.42995
8.81992
7.4509
5.70418
-12.3065
0.791833
18.0443
-6.52964
-6.91734
3.43073
-6.21503
11.9192
-16.7812
-5.0063
12.3955
9.39201
11.2213
-6.89469
-21.1078
15.8633
-9.07969
-15.4635
8.67992
1.7415
8.0322
6.08962
-5.93399
18.645
-20.8162
8.20298
7.13392
2.48424
-17.0637
7.44555
6.48868
11.514
-10.8687
-5.84505
-17.4713
6.03177
17.2845
-20.972
3.63842
11.4885
-4.89911
-6.07173
-10.0011
-14.8187
-7.55165
5.60429
7.01334
-10.1334
12.093
11.5829
-0.0881838
0.0192859
1.35714
-5.06468
-6.66831
10.3758
-8.88648
16.2754
-11.6226
10.1963
12.4808
-11.5392
-3.96545
6.66184
-10.6338
-1.45921
2.31747
-4.98868
-11.2629
9.67306
6.57856
-9.99784
5.00916
9.14059
-2.23266
8.70791
-15.6158
-0.857245
7.45507
-16.0531
6.36541
6.9833
1.96405
-1.49228
-0.647823
-7.27803
0.206397
7.71946
-8.96769
-1.29813
9.618
13.9892
0.435203
-3.46114
-10.9633
14.7901
-9.76859
-2.11983
-1.15198
-0.188136
-6.02911
0.330043
5.88721
-8.77467
8.58654
-3.96521
-6.76436
7.56608
3.16349
8.15408
-12.1193
-8.67413
-0.100542
12.122
0.962229
0.533686
-13.6179
-0.097806
12.2198
0.813303
-8.5252
8.8028
0.688363
-8.95748
9.14374
-0.438741
1.2053
-7.68201
0.447592
3.58468
-6.18034
-10.7383
7.81455
-12.8124
15.7361
-10.507
-0.231273
-4.68264
17.5035
-5.00632
7.30758
-7.50544
-9.37738
9.57523
-3.74332
11.0509
6.03515
11.0855
-10.1294
-6.99127
-4.47186
8.21519
-5.25052
-10.4701
-3.08815
1.36126
7.13647
13.8052
-17.1573
-3.78438
-11.5497
14.0035
3.62127
-19.0012
-13.5336
-1.10421
-19.189
9.27659
-0.91981
5.29911
-5.9323
1.55301
-8.91195
7.99214
-7.68306
0.298202
-5.0532
-5.71414
-1.96892
-8.04276
10.6138
2.31376
-21.8396
3.4822
1.19934
-5.76477
0.0506258
-10.0881
6.6371
-3.93165
2.50624
-6.60092
-0.32907
-3.60258
4.98399
-1.36052
-7.50057
3.8771
3.61181
0.373154
0.999021
2.23857
2.53494
-6.13404
-0.352981
2.59156
-5.28222
4.98259
-0.0533453
5.59296
-8.34025
2.26249
-3.46451
4.63282
3.81428
2.55417
-0.425725
-4.43272
-0.875449
1.73327
0.185371
-0.497126
-1.34346
1.65521
-0.248857
0.242734
0.191494
0.220521
-0.206563
-0.0797505
0.0657919
-0.622611
1.41136
-0.56823
-1.40451
2.9618
-2.1799
-0.304743
-1.09977
-0.0383667
1.3265
-1.78526
0.472544
0.226991
-0.906097
-0.10018
0.323867
0.0777514
-0.216299
-6.20695
6.0238
-17.8808
18.064
-21.7168
2.93869
12.5712
-2.4235
-10.4918
-8.80156
17.453
-11.2225
-8.65395
11.1687
-5.86241
12.1466
-4.47663
14.4741
-3.9737
9.6308
10.4118
-2.46668
-19.1676
4.54941
-16.1643
-0.746329
-0.970198
-7.66287
-18.9932
12.2038
-6.68596
7.16492
-12.6827
12.4668
-1.00936
-2.19585
6.74526
-16.8155
-4.96906
8.56931
8.86655
-1.44663
-0.360684
0.861486
0.945823
1.93462
-0.95749
-2.42375
1.57393
-0.614569
1.34402
-1.68694
-0.815261
-2.23634
-1.16383
4.21543
-0.385788
-1.15902
0.729546
-2.62213
0.355759
1.03344
-2.00377
0.0582258
0.295827
1.04819
0.16544
-14.1829
13.6747
-14.0966
14.6048
2.42888
-3.42392
-13.1879
3.58274
11.708
-20.383
5.09223
5.9249
14.0055
-16.3477
-5.23748
7.66636
13.2546
-6.76459
-0.565077
-0.300896
0.199988
13.3555
0.105727
13.8998
11.8137
13.5989
6.57624
-6.94013
-15.6553
13.0996
9.49584
-11.992
5.20016
-0.148317
-2.74098
-4.1018
-8.81249
-4.99176
-9.74119
7.92181
-7.8542
5.13255
-3.26681
13.6779
-11.9993
3.49435
-5.17293
-8.92951
15.4184
7.18898
-7.28686
-5.74445
-15.5506
-3.73559
10.4215
-6.92714
-10.2482
-4.40003
6.79399
-10.6088
-4.63111
-11.3272
-1.47668
-2.34441
-0.114969
3.93605
4.14144
-1.96851
-0.282314
-1.89061
-2.8291
0.776287
1.43841
0.614404
-1.34136
4.20743
-2.86607
1.41324
-2.7546
-6.402
0.70266
19.2306
-13.5312
4.39962
-11.3211
0.519489
-12.9281
-5.95006
19.5809
-10.4332
-5.48203
2.98704
13.878
-10.848
-15.4205
12.3904
15.3525
-7.42454
-23.9092
2.62811
1.43857
2.82605
-5.40601
1.14139
3.751
-4.41271
2.10028
6.60076
-5.95064
-4.98904
4.33892
0.587354
5.42404
0.589364
0.58253
2.83088
0.817546
3.51598
1.25643
-5.15012
-1.51232
-2.93765
-0.218633
-0.529321
-3.82068
5.58141
-1.23141
-1.6876
1.97582
0.932951
0.240663
-6.32374
1.19811
-3.20281
-2.70202
-6.5729
5.45424
-5.67284
1.28323
1.27887
-6.98885
-0.866179
-0.891674
-4.81505
-5.34091
-3.65128
4.03848
-7.84533
-5.28369
5.48996
7.63905
-0.70138
-2.48972
-4.65423
8.44411
-4.2354
-4.9101
-4.61998
4.97723
8.08686
8.51683
-4.28135
-8.47087
-0.513404
4.41025
9.77781
-3.55182
-8.71571
1.42812
3.066
10.6764
-0.20918
-7.71206
3.54738
-1.16499
-10.8284
-11.7133
6.99646
2.8019
-6.36281
1.77153
5.27129
-7.8604
0.817574
-6.10925
3.85724
4.02354
-14.602
-0.255663
7.95206
6.90559
-5.13177
-0.982665
-8.48755
8.44676
-1.44811
-3.1078
-3.89085
-5.17795
7.51546
-10.2308
4.79719
-5.31079
-10.0518
2.42959
-3.19827
6.03997
-2.72914
9.01597
8.49591
-4.38498
-5.55904
-2.0717
2.70721
-11.9295
4.04154
0.0659791
7.82199
-5.60456
-7.30761
9.26446
-1.52808
-6.8905
6.57362
-2.76932
-8.18928
4.16774
0.334179
-5.01686
1.77822
3.30462
-4.79195
-5.82947
2.74769
-9.08935
-15.1315
12.4303
15.2916
-12.5905
-2.35976
-17.3819
8.57355
11.1681
-26.4335
10.1878
13.886
9.10594
-13.3255
-13.1623
-9.64054
-7.68701
0.450767
-12.3049
-1.00665
12.8608
-0.844783
11.0939
-9.79836
12.7917
-13.4438
-0.192729
-11.2748
10.1399
9.7084
0.532644
-1.75784
-13.9063
-15.8912
15.4953
10.5837
9.64465
-11.8763
15.853
-12.7018
-1.09747
2.2068
-2.24506
-1.20611
17.6264
-14.2134
0.413619
-2.46249
2.34364
-0.294773
0.0640745
0.349545
-1.91867
-0.619943
-0.409398
2.94802
-1.8546
-9.10686
-2.74642
6.62951
5.22378
0.073145
-1.46723
-7.71278
3.97501
-2.7575
-3.07211
-0.525832
3.8809
-7.14821
4.25381
0.147979
-1.14553
-5.92954
0.0593178
-0.305027
0.595253
-3.5487
-0.246623
2.18087
-4.52975
-0.62266
6.72634
3.38453
3.88224
8.41483
-15.2693
2.97223
8.62058
-11.904
7.16563
-18.7033
-5.67213
11.4433
12.9321
-15.8812
0.109221
-2.93136
-6.43827
-12.1807
17.104
1.51502
8.31862
-4.8235
-9.9334
7.75083
-7.46277
8.12677
-0.197028
16.5684
-9.34478
-1.5231
-1.03609
-16.2955
11.0419
8.61405
-24.4794
14.9023
-16.0411
7.50708
-14.7742
0.311848
17.7373
-2.72583
10.4675
-5.08026
12.35
21.7138
4.56093
3.80744
-7.14955
-5.37361
12.4277
5.53231
-8.21464
-9.74535
3.73988
4.94337
3.74444
8.72866
-3.39861
-1.5226
3.35871
8.43595
-1.1846
-3.85907
8.40237
-2.70002
4.31732
-5.12693
-12.9122
6.32585
7.63046
-9.50965
5.61907
9.11179
-2.19835
-1.38113
7.05913
6.99602
2.91438
1.44473
6.68578
-10.2151
-2.69319
-0.814158
-17.6156
-13.0906
-4.12675
1.98902
23.6742
-21.5365
-17.4716
0.0976004
13.2473
-15.4314
-3.7029
1.66265
-1.89353
-12.8516
16.7342
-8.71922
6.92329
-7.48464
-11.4653
3.51855
11.2285
-4.58522
-14.4208
7.77753
18.279
3.04255
-10.093
-7.77304
13.2004
7.72567
9.78723
-6.76633
-10.7466
15.0325
-7.54107
0.234235
-19.6018
8.5003
3.32843
-6.77199
-14.2852
14.0663
-2.95557
-4.67158
-10.3541
-16.0231
-10.1262
6.67129
5.97683
-2.52191
7.76992
-12.9104
-4.98577
-10.2646
13.289
3.00757
-6.03202
11.5124
-16.4303
-5.34672
2.90698
0.0796087
8.52586
12.4913
3.70472
-13.8648
14.218
6.31804
0.1794
-6.27427
7.57751
16.1652
-17.5655
-6.17723
14.6766
-6.9197
11.9658
-2.98142
1.9544
10.6441
-0.107274
16.2535
-4.77202
4.68377
15.5087
15.4214
1.64555
12.2747
0.861252
16.5454
-1.89798
16.7248
-8.76939
-7.32184
3.54451
12.5467
-9.46689
-2.66394
3.36143
0.987131
-10.8977
0.443682
12.1445
-12.6152
1.45785
6.31801
-10.0054
1.02341
0.352543
4.47009
6.07725
10.4757
-10.235
-5.82428
15.446
-6.07775
-2.52985
-1.39776
3.3824
-8.14969
-1.31047
2.83815
-10.3534
-1.2222
-8.55484
-4.61987
3.75617
-4.96058
-4.22182
3.13839
9.42644
-8.343
3.29034
-3.87278
-3.63938
-2.41979
5.65136
-5.76141
-8.29929
4.03196
-6.23115
-12.5305
26.874
-6.79649
-7.54705
4.72064
-16.6525
-0.598564
5.29523
22.37
-22.9446
-0.767028
29.9889
-6.00178
-23.2201
6.89017
14.4859
-34.8615
13.4854
21.8782
-17.35
4.64589
19.9823
2.2458
20.5852
6.43072
-2.51858
18.7947
4.30905
17.371
1.9887
15.9667
20.9124
-8.49172
-8.14766
35.4341
24.8459
28.896
-17.0614
7.69908
-1.90215
-10.6124
4.8155
-10.944
16.7874
1.85572
-12.6213
4.47012
-1.78003
9.93121
-5.22023
-12.9757
19.9871
-1.79125
15.0546
-6.62512
-13.6497
-1.52215
3.95541
-11.312
4.07216
5.33771
19.6905
-19.5839
-10.719
-10.0675
18.814
-7.36339
4.88369
0.957545
-2.56238
-11.4261
-5.54991
-0.878422
-3.75029
-5.98802
-9.84559
-16.4555
8.56095
-2.17298
-7.71764
-12.4881
-4.50088
-7.03705
-2.72012
-10.9944
5.9969
-9.78337
4.07241
0.243118
1.72444
-7.11269
3.6825
7.5026
0.914345
0.988934
4.58903
-0.160545
-1.68079
3.526
1.30615
-3.25062
-0.964498
7.89762
-3.66502
1.32874
8.04748
-4.70045
-1.04652
-2.30051
2.88861
7.55255
-2.39368
-1.55637
6.88647
-1.28703
5.45011
-0.643577
-11.8792
-2.54132
15.0641
-8.63036
10.1303
-2.14352
-13.5795
6.55331
-2.47363
9.49977
-1.75656
0.0641088
-6.93791
-2.57497
-11.0608
-10.0636
9.79831
-2.27605
-11.8353
-1.92718
11.521
2.24144
-5.55675
-19.858
-3.50334
-0.00691834
-6.60124
5.9076
10.7362
-10.0426
-19.8137
-0.466292
13.6788
-7.03516
7.73178
-14.8573
14.1607
7.10548
-19.6974
-12.0176
-3.18156
11.6959
-5.91238
-6.16956
-10.8245
0.332131
13.7599
-3.84597
-10.246
17.6171
-4.66928
-12.6157
-5.5659
16.3467
2.97909
16.2378
-4.18653
-2.89762
11.8596
-13.6313
2.43625
8.52609
-13.86
-0.705093
-12.7839
2.32352
11.1655
-7.47638
0.0447012
6.72659
-2.2167
6.59995
7.37625
6.64481
7.48416
16.2388
8.58743
-9.99715
2.35723
-6.61509
-5.65082
8.24784
4.88714
-13.9472
-2.75341
11.0498
-3.00252
22.081
0.257288
-4.96542
-17.3729
13.9039
-1.3697
9.54674
5.1525
-11.3253
20.0768
-3.90851
17.5029
-8.06544
-5.52894
20.9838
-12.1072
-12.7851
-22.4513
29.1764
-6.46783
-5.38029
-13.0971
-3.97396
-7.88501
-1.60894
14.6464
-13.414
4.15925
-8.63266
9.6427
16.4929
5.80683
6.54428
-16.0299
8.42276
-5.35437
-19.03
8.35446
2.32307
-19.7846
5.7192
-11.4616
0.529046
17.3221
-17.1036
6.82548
10.8072
-16.7647
14.8592
29.7638
-25.5715
-22.6452
18.4529
-1.64097
16.3546
15.0501
-3.96227
27.0859
-10.5932
-12.5304
12.1162
-24.5874
29.7847
-17.3136
-16.8098
3.35454
14.7816
-31.9489
15.5263
6.6447
10.0472
-41.2793
-20.2965
10.1315
-14.551
25.3704
-0.14402
13.6026
16.1149
-29.5736
-12.5898
10.4256
29.0063
-26.4216
7.46246
-26.4495
11.7544
-10.0329
46.0468
-29.8446
-2.13515
-14.067
23.9365
31.534
-9.42378
-20.1525
28.8291
-20.773
12.0964
-37.7069
-12.2903
46.8098
5.95578
-4.77053
-30.6693
-2.26708
12.2546
7.71461
-40.7423
-18.764
-20.8662
25.4332
14.197
-16.0483
3.88292
-6.59865
24.0537
-29.7969
25.4742
-19.7311
26.4205
9.88782
-4.92881
-26.2367
26.3949
-1.32334
-34.8234
6.34993
-24.0901
-0.103042
3.32691
-22.9633
-17.175
21.4162
3.95495
30.9076
16.9292
-29.2155
3.81319
9.0923
-1.55772
-11.3478
-11.8168
11.3936
4.23645
5.71463
-12.7869
-4.74457
-8.66616
14.5871
2.02848
-7.94938
11.1895
-16.3608
-3.49491
-4.37833
-2.35125
18.1232
-3.60577
8.31975
-1.07298
5.47778
10.1823
6.51074
11.2652
-3.52212
14.3918
-6.79219
-0.758472
2.80748
4.74318
-4.17297
0.164743
-2.78396
2.04978
-1.655
-4.56775
0.5765
0.714809
-0.307512
1.86759
-0.983583
1.53587
-0.824707
-1.01868
-0.646311
0.851535
1.66237
0.917014
-0.0274534
-5.35019
1.76983
6.38785
-3.17219
-2.01326
0.268791
1.61369
-3.53749
2.3196
-1.19199
0.406248
-1.53385
0.457762
0.947911
0.913922
1.23409
-1.79001
-1.29412
1.00691
0.744976
-1.25202
0.637822
1.2861
1.32734
-2.88584
-3.8996
2.72637
2.12114
-2.16601
4.85172
-0.355522
-9.80186
-10.2169
24.0353
-4.01659
-15.1103
-18.1247
23.4332
5.63649
7.96503
-0.247303
-13.3542
-0.354169
-9.11964
6.48931
-8.74114
-12.4415
1.95629
25.0717
-14.5865
-0.837363
12.4312
-6.16211
16.2649
-10.457
8.50895
-14.9184
8.08507
-16.5732
7.65073
-5.99526
-7.40349
15.355
-9.26674
11.3566
7.95591
5.30871
3.00031
-4.31412
-5.76974
7.17382
-16.6323
0.191697
7.72624
-12.4374
5.99678
-3.82103
-2.17243
-0.00332499
-1.24676
8.43748
-1.19395
-1.09347
2.43845
-5.93007
4.58509
1.20364
-4.48843
2.19132
7.43561
-8.17779
-3.07885
8.6273
3.89155
-2.41293
-4.8381
3.35949
2.21656
2.87862
-0.962332
-1.06922
-3.89851
-3.57801
-1.87275
-6.32043
0.329493
10.8667
7.3787
-3.86887
-14.3765
-1.90467
5.87351
6.89785
3.14065
2.33338
7.496
-1.24171
-3.11365
2.65644
5.64102
-12.1663
-11.0281
3.05579
15.4683
-1.34616
-0.252223
-9.42975
4.77884
-7.50084
5.37844
8.76297
3.18597
-6.30792
4.17605
10.4604
9.42136
-10.0896
-0.677906
16.6532
-2.1248
18.6095
14.9846
0.280624
-33.8747
-0.166074
26.0497
-7.27412
-40.8332
10.4139
15.5004
14.9189
2.6366
-14.5838
-28.886
42.0936
-11.9032
-27.5537
28.2281
24.2794
42.3987
-39.3173
2.46928
28.0641
11.8653
-11.7539
16.168
-4.58013
9.49462
-20.9679
-28.1438
21.3786
9.2344
13.7742
-15.8682
17.886
-22.9752
13.5737
42.7185
11.9499
11.3481
-5.41202
20.4585
6.99181
-17.3418
8.86709
29.8533
-9.36341
5.79581
-12.8964
11.157
22.1979
-3.74895
2.20065
3.05561
33.5978
4.73167
6.67548
-26.9898
15.5826
10.5471
26.6548
-32.4702
0.414949
19.743
-13.4825
31.8653
-20.9032
36.667
-16.0818
6.06953
46.3744
2.88773
-21.7294
-27.5327
22.0849
18.0457
-20.3876
23.6028
31.9027
-23.6402
46.0237
-0.335925
0.85372
30.5557
14.9649
-45.0759
15.1076
30.822
-18.4094
17.9941
-44.6606
33.5482
-12.6147
-3.21878
15.1102
20.0112
18.8379
23.967
12.3616
-4.78747
25.9741
10.7859
20.4135
-18.5813
31.7472
1.94173
18.9606
-0.703023
15.4895
-0.297103
16.4814
-3.7995
-12.3848
-4.95209
20.4715
-15.8165
-2.79835
20.8488
-23.0026
12.813
1.24631
-16.8576
5.69667
13.3907
-2.60597
21.2641
4.90404
-5.13634
14.169
3.78029
18.3787
-2.66622
12.7482
-15.3014
-17.4409
-13.7437
10.1958
20.9888
2.70049
-19.4013
-0.740104
16.0171
3.906
-1.32571
13.4368
14.9387
0.860796
5.4646
16.0929
-22.746
-1.45055
3.79972
0.232687
13.8691
2.90682
10.7062
13.5696
5.66989
9.64441
3.07408
-7.00782
10.1473
16.2062
-5.18444
8.27194
-8.53627
5.44878
-0.0621022
-3.93498
-1.18736
-10.0866
8.91441
-7.60748
8.77963
-3.1733
-12.4526
5.53932
-6.37127
10.573
4.71264
-4.98476
-1.44861
-6.3027
2.14518
-8.06359
12.2211
4.82104
-0.550707
-2.49188
9.4581
-7.01113
12.7912
-12.7898
5.42579
-1.17231
-9.72357
-7.00118
-9.46466
1.3066
7.06104
-0.594105
-1.12765
-5.33929
17.3804
-18.383
-6.00932
4.42398
-0.631839
-5.97158
8.38765
-6.57088
-7.45053
5.63375
3.80693
1.77918
2.80154
-8.7303
-10.6667
6.72724
12.6697
1.79012
4.44354
-12.8045
7.52805
-14.4682
-9.45673
6.16199
-6.65059
9.94533
5.66364
-7.59233
-7.66114
3.03586
1.91296
2.71232
8.98857
-12.2062
7.08896
4.8411
-2.94149
4.81
5.31483
2.01491
5.5617
-8.94418
10.1625
3.59163
-0.296145
-5.12831
-3.09853
16.4207
-8.19386
-26.6157
1.13113
13.9947
11.4899
-1.59178
-26.4876
1.46366
-16.0999
-2.58518
13.5567
8.13318
-0.986856
-23.2462
-20.6321
10.0328
11.7304
0.205572
-22.4294
-5.35501
12.2893
-17.9939
10.0537
-19.2513
1.46292
18.1402
2.29166
0.903117
-21.335
7.7751
11.8585
-1.4934
-6.94568
-4.55779
6.24238
5.2611
-13.7308
-8.5415
15.3266
-12.8833
13.5769
7.08151
2.07586
-12.6675
-13.2199
11.3477
2.20191
-14.5187
-4.55299
18.523
-0.393077
-3.41618
-17.9678
16.8262
-24.2787
2.93309
17.9294
-2.14524
-25.9331
3.79968
-20.8091
0.696107
-16.6514
15.0315
3.40615
-22.0133
0.211722
-22.7387
-14.3638
-17.1434
3.78083
13.6895
-0.326852
-8.33527
5.29129
-14.0995
-1.60356
6.34562
4.94115
-9.68322
12.0595
5.87253
-19.5356
1.33052
10.9101
-0.181154
7.18904
0.487105
18.6345
8.92404
-15.2296
-12.3289
11.7353
7.78628
-0.887114
-16.6829
10.7783
17.6398
-5.41469
-2.34412
9.19613
-12.5902
10.8402
2.13677
6.66314
-3.78614
2.41428
15.8482
4.50446
-14.7233
5.36618
-10.449
4.32183
16.9055
-4.95355
13.3472
4.68204
8.84788
16.1396
-9.13933
26.5169
5.09618
10.0108
0.696228
-15.8032
10.2128
-11.6999
6.5833
-4.67502
1.08859
13.7992
-2.85141
8.18724
3.43284
-0.318344
-14.8144
-8.66389
-3.40104
13.1535
8.35055
-4.07737
2.68083
-6.954
5.66677
7.94047
-4.36967
-9.23757
11.4349
2.75374
-8.52188
0.73339
12.043
-4.83594
13.1338
-4.04985
-7.59152
2.36048
2.54694
6.03656
-10.4622
9.60813
-6.63201
8.21281
-1.08975
6.03336
0.703445
-4.90186
-1.83494
1.46572
3.1507
1.41694
-3.00303
2.32996
2.1388
-0.52489
-1.7747
3.94172
7.42619
-8.2172
-1.63791
7.70932
-3.74145
-3.14516
9.22874
-2.73694
-3.34664
2.20885
-4.42513
-0.928872
2.91876
-1.22889
-2.21475
-4.94106
6.22191
3.46169
2.33271
3.43434
-6.02018
4.5408
-5.04022
-6.92263
-4.9067
4.74949
7.07984
-9.10456
1.05017
1.13176
-2.30643
-3.00773
0.407456
6.85811
-8.39911
-0.76543
5.76155
-8.51304
9.6096
-6.44265
16.9537
-4.52256
-7.58973
7.15754
-8.81215
2.70478
-5.47489
6.18978
-8.32582
-0.0728863
-0.000402692
-3.99753
-9.9904
-8.91643
0.00613477
0.0981459
13.4099
-0.499831
-11.2505
-1.6596
16.4332
15.8153
-19.8526
-12.3959
3.96087
10.9507
1.52159
12.1131
5.25769
14.383
3.05615
-1.62387
13.0734
12.2604
24.1109
-12.2272
-3.57891
-8.30481
0.524553
-1.79944
25.3858
-15.1452
-0.579069
16.2488
-15.2593
22.7647
-14.7011
-11.6425
-0.984372
21.9497
23.2815
-17.067
-6.62496
0.410429
0.627636
21.6695
10.8771
-13.4584
-14.4857
15.5927
-1.65946
-1.02027
13.5146
-6.54441
-14.7816
15.2001
12.8854
-0.205629
2.87419
-15.554
1.84338
13.7672
-2.72517
21.4488
16.6579
-22.8575
-15.2492
-2.9012
10.6634
13.6866
5.24591
8.51077
11.5556
2.49795
-14.2592
-1.68759
15.0866
12.1017
12.3289
3.19923
-23.1826
-19.248
6.88082
11.5119
0.855245
-12.7267
-1.02629
-5.495
1.24759
17.0411
-6.18694
14.9634
0.0645638
-11.8287
10.2104
9.99888
2.86885
-13.0976
-18.7071
4.83374
20.7542
-13.0334
-6.69996
16.2918
-10.1
-0.136599
0.664626
-0.946269
0.418242
0.533852
-1.44961
0.77916
0.949065
-1.10528
0.69007
0.166241
1.44745
-0.84413
-0.270898
0.168759
-1.37126
-0.922477
0.395733
0.718043
-1.38467
0.573877
1.78634
-1.96449
-1.42347
2.16359
-0.724934
-0.0087811
-0.736592
1.47031
1.4234
-0.565589
-1.58274
0.753951
-0.757875
1.42732
0.687593
-0.920212
-0.872664
0.0180755
0.765285
-2.25109
-0.614759
-10.3403
14.7066
-15.5817
11.2154
7.81891
-0.134868
-18.0243
0.917174
-3.18537
10.0871
-4.54544
20.1692
-24.8856
-1.14252
5.37639
20.6518
-13.785
-1.49953
-9.60114
1.60028
-5.4039
-11.7781
-3.19846
-15.7474
14.4004
-18.5672
14.2262
-12.11
-20.2422
18.2462
-11.2697
-8.47599
20.4372
-9.98471
-4.16237
-8.39902
-0.725841
-2.14484
2.97611
-17.1482
5.77311
-19.1186
3.98028
7.64045
-11.6207
8.73079
-7.58901
2.8385
1.34128
-2.34784
8.64701
-0.985666
11.0577
1.36982
-12.9906
-6.41578
0.196591
0.904377
-17.5988
1.76682
14.9277
-14.9753
2.37687
13.5028
-21.8719
19.2878
1.77021
0.813875
-2.26639
-0.00914058
-19.5964
-3.48841
5.17737
-18.9597
0.495983
-10.1638
11.555
-0.370943
1.27225
-7.31709
1.74315
-15.1046
-14.1357
13.5547
14.0918
-14.615
1.72628
-1.5356
-17.4332
-10.4272
1.08121
7.18978
1.52593
-9.79692
2.41068
0.173446
-13.4647
10.8806
16.6856
9.35025
-18.9185
-7.11732
-9.43608
14.6548
11.4669
-6.82161
8.89317
-2.68535
0.613792
-9.07538
2.54342
-0.289658
15.1277
2.69333
-15.4104
-6.50311
12.5555
0.716052
-4.52583
-9.89018
10.3028
-2.87337
2.46077
2.39953
-12.1163
-3.22913
8.36685
4.21253
1.53399
-18.053
-7.18604
8.15486
-9.73317
1.07432
-3.69954
12.3584
-7.95337
-24.3808
22.601
2.28806
21.3016
-13.345
-10.2447
-12.1788
2.3031
3.85716
6.01857
-12.8236
-15.4974
16.1422
-21.8572
1.08021
-6.88469
10.3024
15.9406
-19.3583
-3.41038
-2.39999
-7.28486
-8.84018
18.4131
-8.65937
-10.381
11.7555
-7.25318
0.896913
0.684501
0.777725
-11.9016
2.20512
-8.50749
-10.6473
-7.42792
6.24181
-7.64679
8.83289
-10.8847
6.44218
-2.9854
0.206688
-10.9261
12.3521
-1.63268
-9.65734
-1.02067
-6.15458
-3.65439
16.0508
-6.23592
6.52351
0.227588
-16.1087
9.64517
-22.0735
8.60362
13.6975
-0.914469
6.92834
-15.6712
7.41366
-19.2542
3.81724
-12.9976
-6.74733
-11.5089
-0.303252
5.00853
-10.5164
15.4656
17.3697
-16.7033
6.55004
47.3594
-28.8381
-1.76922
-16.752
1.29524
21.5616
24.5025
-33.4959
-2.70218
23.5813
12.6168
-19.7225
-42.6115
-25.4201
12.7907
13.9246
-17.1405
-10.0489
-26.8029
13.977
10.1237
-12.1571
8.87689
-23.5227
0.515605
-32.3951
8.58255
36.5604
10.1559
-14.6163
17.2512
-32.442
28.9971
17.4218
-5.62315
-17.9419
16.1451
9.85663
-25.4861
25.6464
-6.90802
14.0346
-15.03
-2.57389
1.99212
18.8863
-14.6528
2.00289
14.3095
-6.93222
3.2684
-14.7243
18.3881
15.8406
-18.0627
-1.23898
4.64762
-6.96746
18.1604
-11.2718
-0.471472
-10.8259
22.5691
-1.78087
-16.4231
-2.84845
22.2862
-5.60334
0.759032
-13.2184
-9.99659
19.1917
-9.66659
3.25559
-15.033
-19.3625
17.0148
2.41602
4.12827
15.8353
-22.3796
7.55188
24.4565
-29.5924
13.1943
-9.16682
10.3551
17.0748
3.27297
-1.15605
21.7782
7.62669
6.59059
-26.0936
10.9192
-16.4548
-6.1772
9.05163
8.29365
1.44079
18.5264
-9.04799
10.1976
9.75454
-13.3616
-6.539
18.1774
8.61595
3.73323
11.4006
7.09841
-9.8831
-0.844079
9.50116
1.94473
2.22732
-15.2464
11.0744
15.3413
-6.64844
6.92376
-15.6166
-4.5256
-0.971475
20.8384
-12.8179
3.49653
-2.09923
11.4206
4.11644
-14.9896
-4.41424
14.9543
-15.0656
-9.96074
-3.82569
12.8149
-16.6301
0.0209208
21.4185
-0.917078
-10.0208
-10.4807
2.16948
2.18342
17.0656
17.7392
-9.2512
-9.40506
4.49333
15.4153
12.9682
4.0064
-12.8582
-0.165362
-0.466224
-12.7287
17.2013
-4.20317
-12.2637
16.0006
19.4393
-11.7582
-17.7019
17.2085
13.9333
-13.2656
-13.734
14.097
10.0099
-19.7332
-4.37368
-7.22047
12.1057
9.21179
6.33525
-3.54584
-15.5918
4.04895
12.234
-0.691149
-17.3473
-11.8963
13.6518
2.24538
-14.5108
18.6006
-4.43107
-11.6625
18.3389
3.66862
12.486
14.2215
-13.0864
-5.56614
19.7637
-9.88503
4.34283
4.39771
20.8661
-5.5001
22.8179
-14.7515
-9.93144
-2.21915
-4.26043
16.411
-15.3267
14.7655
-9.37022
9.72964
-6.88405
-2.84559
3.37434
-0.768881
13.7198
-16.3253
0.0660785
13.0379
9.10167
-4.62953
-6.69129
1.52028
6.5367
-2.37069
-5.68629
8.91623
-7.39596
2.03218
2.33518
-12.8417
9.73767
-6.69946
9.10072
-8.36707
-17.5028
19.1705
-6.33489
-18.3343
-15.3421
16.1735
-15.3196
-9.34954
-5.3445
-3.28917
-6.70839
-14.1274
-7.02923
1.65466
11.3601
1.49439
-14.5092
-17.17
14.9673
3.85732
0.461295
-0.614746
-17.0165
-1.42525
-0.192233
16.5848
-1.40642
11.3413
6.04185
-22.3058
18.1325
-1.86855
13.5824
-12.4039
4.86336
16.1615
-2.92714
-16.964
3.7297
17.0005
-0.839031
-17.4618
-2.02205
19.2916
-0.835057
13.011
5.66512
-1.5271
-26.4438
-9.1276
2.38881
19.2477
-1.43883
0.323627
1.18919
17.2234
15.7033
-20.1576
-1.26403
16.1283
16.7255
-17.5583
-20.1036
-18.5189
26.9731
11.6494
-5.60422
-30.0068
15.5075
9.3796
-2.99063
-24.9079
6.02754
33.719
-12.7734
-28.8885
-10.1875
17.1138
21.9623
20.1356
-33.5969
5.55061
7.91074
-5.56392
31.727
-29.8279
-5.08061
6.02007
-25.014
0.796703
0.711927
-20.7789
-4.94707
34.7181
-28.1839
-5.82234
24.3312
15.9376
-12.7314
31.4987
26.1761
-36.7932
-2.11444
5.45428
-22.4562
-3.77694
-24.0726
1.34299
2.51768
-3.84803
-2.69578
4.02613
-1.61545
1.50069
2.63245
-0.685863
0.0543594
-3.21653
5.08263
-0.118478
-5.65001
4.79827
-4.17052
-4.9467
4.31895
-1.87857
3.57359
3.10325
1.58861
0.303832
-4.59283
-2.47091
6.4589
0.535048
-20.8713
13.8774
-5.76716
5.6629
6.56317
10.6101
-0.734584
4.41909
-14.2946
14.134
6.77165
-20.3706
-12.4422
12.7914
16.8395
-17.1888
-1.29632
-11.1458
-12.0887
9.59323
13.1055
-13.385
9.70812
3.69126
13.6503
-8.96945
2.09078
-4.45831
26.8429
18.9001
0.922316
-2.7976
-14.3638
16.2391
-1.84244
-12.6203
15.385
2.55995
1.36493
-18.1506
14.2257
-15.0701
15.7876
-15.0778
13.6451
6.37975
-12.2377
-8.50582
-6.24052
-4.27737
-16.4246
5.6319
7.95036
-4.15487
2.37332
-6.1688
-18.5392
11.4118
-2.28672
-20.4073
-10.5179
-1.48886
-14.2884
-2.9065
-15.0069
1.40114
-15.9256
-12.0233
13.1941
-13.6558
5.40238
-4.94063
-6.9313
7.26078
12.8646
8.50852
-2.49428
-19.6701
1.57722
9.45702
4.17859
-8.23323
19.4996
-2.78184
-7.69241
9.26963
-11.6226
1.59522
12.034
-2.00659
-5.4351
-13.8799
-17.3051
9.37568
10.0324
-14.2687
-14.4182
18.6545
-0.338538
10.371
-0.534969
10.6122
1.54134
-11.6186
2.13858
-16.9422
9.28207
9.14984
-7.81972
8.94353
-0.733977
11.4696
-9.1943
15.1939
-13.7893
0.291528
13.1459
-13.8399
0.40241
4.14409
-6.75289
17.8027
-0.682779
-12.7799
12.6538
0.808872
8.26075
-3.58978
-0.0403156
16.6247
-12.4276
-0.0530301
-0.250186
17.4133
-0.538363
0.582467
7.96981
12.9861
-4.54776
-18.7562
17.6657
-14.663
15.7534
-11.653
-2.94472
-4.15845
4.98183
-1.71102
14.3949
-26.4725
1.80742
10.0021
-22.5461
-15.5794
-11.6256
18.0724
-1.46496
18.2809
-14.5544
-6.67115
11.9295
4.64038
-19.6916
9.87344
31.1278
-8.32191
-32.8198
10.014
27.0412
-15.605
18.9788
4.43053
-7.12734
-16.2819
12.6575
5.1807
1.14051
1.97574
-32.8437
-13.5677
13.8797
12.3456
-7.05472
-2.08249
15.7884
-20.94
6.41465
12.3269
11.0081
-11.698
-11.637
-5.91282
14.4363
3.80337
-21.3852
4.05867
14.4163
2.91024
-9.97472
-0.402388
18.5481
-12.546
2.01446
-8.01662
23.6799
-7.16308
2.0313
11.4284
0.277943
-23.4043
8.35362
-2.83805
13.5461
4.9489
11.2914
-22.3975
11.3841
6.78052
-8.03508
-17.5981
-16.6467
21.0072
13.2376
1.5672
-10.8116
-8.29901
0.0474643
35.1821
-22.248
-12.9816
32.5172
-11.9622
-20.5076
5.21156
15.7517
14.2189
18.1461
19.5827
-21.516
-6.39643
5.6644
11.205
13.0251
-8.47848
-11.0232
2.26936
12.7425
-3.98871
-11.5262
-1.87644
2.3795
16.6844
-4.69458
-12.8931
0.903213
11.3858
-6.22757
-15.756
17.2574
6.0971
-7.59851
6.77019
-20.6453
-1.88096