/*--------------------------------*- C++ -*----------------------------------*\
  =========                 |
  \\      /  F ield         | OpenFOAM: The Open Source CFD Toolbox
   \\    /   O peration     | Website:  https://openfoam.org
    \\  /    A nd           | Version:  10
     \\/     M anipulation  |
\*---------------------------------------------------------------------------*/
FoamFile
{
    format      ascii;
    class       volVectorField;
    location    "8";
    object      U;
}
// * * * * * * * * * * * * * * * * * * * * * * * * * * * * * * * * * * * * * //

dimensions      [0 1 -1 0 0 0 0];

internalField   nonuniform List<vector> 
75457
(
(4.99393 -0.288023 -0.804939)
(5.13554 -1.18471 -1.19194)
(7.36048 0.0240826 -0.622265)
(9.64408 -0.328176 -1.06939)
(4.33357 1.02784 -0.0128163)
(4.54927 1.20264 -0.119843)
(5.4571 -0.547469 -0.677979)
(5.18005 0.525034 -1.0875)
(10.7971 -0.622005 -1.15087)
(10.6391 -0.394904 -0.947175)
(10.8879 -0.216131 -0.975608)
(4.96843 0.377985 0.224451)
(5.10128 0.189496 -0.179495)
(9.76575 -0.185907 -0.402468)
(11.8548 -0.382831 -0.169027)
(11.9503 -0.375997 -0.14481)
(12.3321 -0.430327 -0.292592)
(12.1115 -0.452394 -0.356658)
(12.0403 -0.405725 -0.165774)
(12.3406 -0.380796 -0.232242)
(12.1568 -0.428308 -0.318863)
(12.2346 -0.42633 -0.182178)
(11.9244 -0.395287 -0.155923)
(11.9257 -0.399665 -0.190763)
(12.2128 -0.445554 -0.161208)
(11.7143 -0.439361 -0.346782)
(11.6617 -0.47299 -0.375374)
(11.2641 -1.0363 0.517765)
(11.0761 -1.00145 0.685255)
(11.2284 -1.02778 0.520639)
(11.3339 -0.934581 0.476565)
(10.9995 -0.993858 0.652202)
(10.997 -0.957799 0.661115)
(11.5314 -0.779358 0.429073)
(11.5075 -0.770869 0.408856)
(11.6611 -0.716543 0.635081)
(11.5985 -0.808411 0.470465)
(10.9592 -0.986116 0.718543)
(11.0593 -0.942111 0.697411)
(11.5325 -0.713072 0.443169)
(11.5572 -0.704418 0.456772)
(11.5342 -0.732739 0.483546)
(11.62 -0.772918 0.641619)
(12.7038 0.687928 0.437204)
(12.5042 0.721595 0.360938)
(12.827 0.613546 0.421271)
(12.8408 0.596609 0.452322)
(12.6771 0.654233 0.415404)
(12.1437 0.311486 0.121207)
(12.4058 0.435664 0.193249)
(12.415 0.441431 0.171212)
(12.2162 0.32631 0.165173)
(11.9238 0.357207 0.0390799)
(12.3295 0.429243 0.171776)
(12.4519 0.403345 0.233647)
(12.4484 0.399249 0.202533)
(12.0211 0.431715 0.111651)
(12.04 0.427796 0.0933343)
(12.103 0.306289 0.0769921)
(11.8857 0.342847 0.0277118)
(11.9689 0.395244 0.0792846)
(12.1931 0.319865 0.122767)
(9.9578 0.0565344 -0.317076)
(9.96222 0.0670487 -0.342357)
(10.1483 0.0877982 -0.269485)
(9.94561 0.0617603 -0.309091)
(9.96494 0.0561051 -0.28891)
(9.91511 0.0350015 -0.284887)
(9.93553 0.0416053 -0.221634)
(9.82846 0.027608 -0.246287)
(9.84203 0.00866625 -0.242897)
(9.78829 0.00163002 -0.255707)
(9.96919 0.0483874 -0.230552)
(10.1385 0.0895884 -0.268756)
(9.94534 0.0485276 -0.208367)
(10.1206 0.0797665 -0.236593)
(10.1082 0.0716993 -0.224078)
(0.747307 1.20363 1.0269)
(-1.04337 1.39572 0.101663)
(-1.38246 1.14422 0.0215)
(2.04146 1.44295 1.14852)
(-0.854889 1.86044 0.289039)
(0.384737 0.983089 0.4693)
(-0.767789 0.706716 0.221227)
(-0.960374 1.40241 -0.182892)
(-1.33858 1.59077 -0.403315)
(-0.930274 1.23386 -0.228901)
(-0.665614 0.948493 -0.440305)
(1.43863 1.0812 0.147944)
(2.03255 1.41065 0.612365)
(-0.0134567 0.88522 0.0268979)
(-0.735874 0.709848 -0.0723371)
(0.561695 1.4629 0.953935)
(-0.809096 1.16657 0.235907)
(12.4557 -0.272863 -0.0161563)
(12.8369 -0.27813 -0.0183417)
(12.8367 -0.281778 -0.0179684)
(12.8563 -0.281825 -0.0127689)
(12.2382 -0.271337 -0.0169956)
(12.491 -0.269789 -0.0176023)
(12.4889 -0.281294 0.00624343)
(12.3499 -0.261855 -0.0157319)
(10.0172 -0.00993127 -0.0199792)
(10.0274 -0.00921668 -0.0169173)
(10.0208 -0.0148912 -0.0222951)
(10.021 -0.0193331 -0.0156363)
(10.0121 -0.0173845 -0.00677425)
(10.0236 -0.0172691 -0.00596733)
(9.85513 0.000662175 -0.0205758)
(9.93358 -0.0144082 -0.0150806)
(9.9451 -0.0181519 -0.0109461)
(9.90194 -0.0187226 -0.00168103)
(9.871 -0.0258971 -0.0231028)
(10.7361 0.116136 0.06623)
(10.773 0.139456 0.184959)
(10.3744 0.0977148 0.111396)
(10.3626 0.0332618 0.0379344)
(10.7508 0.087805 0.202491)
(10.6263 0.152239 0.114498)
(10.5268 0.201609 -0.0210956)
(10.8391 0.10765 0.264927)
(10.8316 0.132256 0.273547)
(10.7301 0.130056 0.267174)
(10.5348 0.154195 0.125648)
(10.4377 0.126937 0.0885704)
(10.4825 0.123747 0.13989)
(10.5341 0.166424 0.0551666)
(10.478 0.0938249 0.148774)
(10.5163 0.0587883 0.0814513)
(10.6196 0.117787 0.225691)
(10.7124 0.116446 0.242973)
(11.2888 0.00701554 0.349413)
(11.3609 0.0802298 0.302534)
(11.3622 0.0564867 0.331769)
(11.2917 0.0345424 0.301626)
(11.2863 0.0198175 0.291236)
(11.2797 0.0802801 0.309062)
(11.2105 0.0382265 0.290577)
(11.2169 0.0283282 0.331857)
(11.1647 -0.00740185 0.306374)
(11.9075 0.0375344 0.178886)
(11.9139 0.0236318 0.198889)
(11.8054 0.0163118 0.23115)
(11.9174 0.0327026 0.150053)
(11.9505 0.0214505 0.169135)
(11.6477 0.0252909 0.114411)
(11.8208 0.00641443 0.239783)
(11.854 -0.00392244 0.204923)
(12.7849 0.0390945 0.00897259)
(12.8783 0.0545861 0.0410605)
(12.6477 0.0199458 -0.0538241)
(12.6694 0.0887387 0.0230639)
(13.0823 0.0455571 0.139905)
(13.0278 0.0886292 0.184525)
(12.8468 0.0532019 0.0832117)
(12.6804 0.0853209 0.0218524)
(12.6499 0.0728589 0.0687754)
(12.5876 0.071271 -0.000162633)
(13.0049 0.0804501 0.171396)
(12.6735 0.0880835 0.0325175)
(12.6899 0.033625 -0.00515193)
(12.9881 0.0801822 0.21297)
(12.6064 0.07816 0.066945)
(11.5085 1.08745 0.88438)
(11.2659 1.2462 0.872657)
(11.1786 1.30952 0.834358)
(11.3673 1.21875 0.784665)
(11.2345 1.113 0.744628)
(11.7036 0.951457 0.851855)
(11.5441 0.762061 0.546225)
(11.4214 0.886115 0.673577)
(11.5481 1.27787 1.0097)
(11.4329 0.962269 0.647507)
(11.5367 1.07773 0.685197)
(11.7971 1.15044 0.888642)
(11.6266 0.93891 0.592018)
(12.9114 -0.073257 -0.0729042)
(13.0342 -0.0334996 -0.089889)
(12.9312 -0.00944408 -0.0398948)
(12.7503 -0.037341 -0.0126662)
(12.78 -0.0170692 -0.00165223)
(12.6419 -0.0238744 -0.0408155)
(12.8803 -0.0738205 -0.0386682)
(12.8191 -0.0849442 -0.0137817)
(12.6791 -0.0925457 -0.000202817)
(13.0249 -0.0390907 -0.103561)
(12.7666 -0.0404858 -0.0316008)
(12.9087 -0.0667814 -0.0583827)
(12.6627 -0.0364019 -0.015918)
(12.6201 -0.029489 0.000925415)
(10.0431 -0.0920276 -0.771611)
(9.49898 -0.261605 -0.934604)
(9.34598 -0.0829944 -1.02789)
(8.67235 -0.133125 -0.854393)
(8.1247 -0.228941 -0.94086)
(8.51537 -0.105293 -0.915184)
(11.8498 0.373693 -0.62751)
(11.694 0.234506 -0.475705)
(11.7766 0.208948 -0.446161)
(11.8611 0.244817 -0.482056)
(11.9808 0.26819 -0.483247)
(11.6216 0.186796 -0.194915)
(11.4584 0.303856 -0.142212)
(11.5108 0.296128 -0.113329)
(11.6344 0.323413 -0.234655)
(11.8893 0.319708 -0.239564)
(11.7372 0.263159 -0.057121)
(11.8016 -0.0026711 -0.0992325)
(11.8493 -0.0174461 -0.0406724)
(11.8938 -0.0253286 -0.0364836)
(12.114 -0.0499543 -0.0627084)
(12.0375 -0.000591431 -0.117168)
(11.7081 -0.0140808 -0.0584341)
(11.7154 0.0455073 -0.0846591)
(12.0262 0.000112858 -0.1307)
(11.9136 -0.0042538 -0.0822237)
(11.787 -0.0342535 -0.0244628)
(12.0206 0.00310372 -0.12855)
(11.68 0.0150234 -0.0920754)
(11.6415 0.00262824 -0.0163026)
(11.6582 -0.00251787 -0.0426164)
(11.8261 0.367492 -0.0320785)
(11.896 0.382677 0.00726487)
(11.7293 0.361211 -0.0281369)
(12.0621 0.330756 -0.0105597)
(11.9247 0.325757 0.033917)
(11.8327 0.392847 -0.0327818)
(11.9187 0.391882 -0.0087904)
(11.879 0.433408 -0.0565307)
(11.7784 0.418745 -0.0205076)
(12.168 0.391826 -0.0890489)
(12.2047 0.362999 -0.0773899)
(11.9465 0.38957 -0.0203791)
(11.9309 0.40769 -0.0454268)
(11.9938 0.385591 -0.00691843)
(12.177 0.00192604 -0.267959)
(11.9719 -0.0027882 -0.293777)
(12.3585 -0.057162 -0.272409)
(12.2944 -0.0411037 -0.217727)
(12.3096 -0.0550301 -0.215069)
(12.3827 -0.0603683 -0.281761)
(12.0841 -0.00799194 -0.221023)
(11.9628 0.0218024 -0.258409)
(11.9797 -0.00745296 -0.279068)
(11.9176 -0.0105318 -0.26962)
(12.0939 -0.027126 -0.293449)
(12.053 -0.0163079 -0.207294)
(12.0554 -0.0100855 -0.195025)
(11.9505 -0.00147258 -0.285328)
(11.8917 -0.00733179 -0.267917)
(11.9883 -0.00359922 -0.204017)
(11.9684 0.0169719 -0.259419)
(10.5109 -0.0706862 0.110547)
(10.2466 0.0269104 0.0224704)
(10.353 0.0261038 0.0213665)
(10.3259 0.0467539 0.0359847)
(10.5493 -0.112074 0.0858846)
(10.6982 -0.141111 0.060147)
(10.602 -0.216205 0.229082)
(11.7873 -0.169312 0.203192)
(11.8546 -0.254475 0.198353)
(11.7998 -0.223176 0.198049)
(10.5867 -0.0754228 0.127455)
(10.519 -0.160825 0.136299)
(11.9642 0.191368 -0.111174)
(11.2246 0.12619 0.0183305)
(11.6356 0.072125 -0.174703)
(11.3552 0.000377326 -0.0866594)
(11.3015 0.120875 0.035791)
(11.5212 -0.00205864 -0.0800538)
(11.4565 0.0113539 -0.0863066)
(11.4187 0.11819 0.00149929)
(11.8582 0.16087 -0.225538)
(11.7988 0.149606 -0.211648)
(11.9014 0.200137 -0.113902)
(11.8061 0.149243 -0.214137)
(11.9034 0.188073 -0.0959245)
(12.2667 0.0318504 0.105247)
(12.2005 0.00457454 0.115415)
(12.3905 0.0474478 0.126477)
(12.3357 -0.00265254 0.139518)
(12.3029 -0.017091 0.144636)
(12.2306 0.0252679 0.090288)
(12.2334 -0.00425853 0.103703)
(12.3156 0.0157792 0.11643)
(12.2883 -0.00221884 0.125867)
(12.3038 0.0429945 0.0993664)
(12.6602 0.092853 0.120347)
(12.5851 0.0778539 0.121603)
(12.3306 0.0307649 0.0958187)
(12.5259 0.0735812 0.101821)
(12.5114 0.0710931 0.0951025)
(9.54144 0.137288 0.0207513)
(9.49255 0.107787 0.0324792)
(9.31701 -0.000232976 -0.022083)
(9.29733 0.00325458 -0.0243887)
(9.41137 0.105407 -0.0200052)
(9.56867 0.108836 -0.00201917)
(9.58485 0.132035 0.00248174)
(9.37531 0.0496927 -0.00329773)
(9.46224 0.0542106 0.000712611)
(5.41259 -0.139703 -1.48509)
(5.26602 -0.0626057 -1.43441)
(5.26707 -0.369502 -1.39176)
(5.33952 -0.404249 -1.41512)
(4.98891 -0.249746 -1.44518)
(4.89449 -0.0722615 -1.47854)
(4.94686 -0.35994 -1.66736)
(4.94598 -0.528486 -1.5005)
(5.0779 -0.0908788 -1.57449)
(5.06472 -0.455105 -1.68446)
(5.08045 -0.565814 -1.5409)
(5.382 -0.371881 -1.54171)
(5.3401 -0.512405 -1.5074)
(2.19088 0.046731 -0.0764753)
(0.154887 0.260165 0.136382)
(0.420356 0.0514532 -0.369404)
(1.92481 -0.0166886 -0.255505)
(2.37533 -0.176816 -0.239119)
(2.04794 -0.222355 -0.13107)
(2.24903 -0.111622 -0.164692)
(-0.394197 -0.027451 -0.568794)
(-0.526409 0.438192 -0.130528)
(0.0865124 0.122382 0.234641)
(0.265873 0.00776804 -0.0703774)
(12.3746 0.124518 0.132941)
(12.4814 0.156139 0.141107)
(12.4885 0.164806 0.129122)
(12.2058 0.196589 0.0598588)
(12.1375 0.189083 0.0470979)
(12.1932 0.137441 0.0754199)
(12.2093 0.1717 0.0668928)
(12.1353 0.173204 0.0505243)
(12.0621 0.167498 0.0533225)
(12.3541 0.108204 0.121852)
(12.3965 0.122251 0.106394)
(11.9302 0.0677423 0.0373584)
(11.9111 0.0674762 0.0651842)
(11.9542 0.119341 0.0145149)
(12.1034 0.122045 0.0745396)
(11.8821 0.0665686 0.0509488)
(11.8719 0.0634227 0.0290393)
(-1.12003 -0.17165 -1.2853)
(-0.66011 -1.02517 -0.594762)
(-0.903419 -0.360943 -0.83887)
(-0.498747 -1.61271 -0.142939)
(-2.49193 -0.135274 -0.324447)
(-2.14395 -0.327198 -0.556819)
(-2.55673 0.193817 -0.593949)
(-0.224998 -1.4822 0.166159)
(-1.40577 -0.611042 -0.533467)
(-1.15433 -0.976362 -0.110678)
(-1.25481 -1.04975 0.00695137)
(10.9104 0.302303 -0.0100658)
(10.9236 0.304824 -0.0227284)
(10.7051 0.196787 -0.00132777)
(10.4444 0.0632006 -0.0128816)
(10.5353 0.22459 -0.0245526)
(10.3731 0.120072 -0.0854587)
(10.3606 0.112751 -0.0970849)
(10.3536 0.082103 -0.0158698)
(10.595 0.17837 0.0470447)
(10.23 0.0185445 -0.0259369)
(10.5725 0.181592 0.034803)
(11.3396 0.230236 0.170201)
(11.3276 0.226761 0.141683)
(11.3628 0.245439 0.175096)
(11.3466 0.225928 0.133302)
(11.1393 0.209883 0.0854966)
(11.1965 0.224325 0.122326)
(10.9897 0.280872 0.0527581)
(11.0568 0.278811 0.0798911)
(11.217 0.274605 0.116098)
(11.1002 0.272303 0.0793776)
(10.8913 0.26066 0.000535311)
(10.953 0.266173 0.021045)
(11.0464 0.204722 0.0591916)
(11.1146 0.228729 0.0766151)
(11.0182 0.230962 0.0551924)
(4.49126 -0.0745389 -0.0744343)
(3.87011 -0.0728619 -0.293189)
(3.95853 -0.0261153 -0.342231)
(4.5753 -0.0470214 -0.379898)
(3.31944 -0.00236566 -0.418115)
(12.2008 -0.0420032 0.569983)
(12.3055 -0.0691483 0.560467)
(12.4235 -0.0870493 0.62451)
(12.354 -0.0772021 0.620644)
(12.6921 -0.134809 0.608238)
(12.6641 -0.148321 0.629499)
(12.4773 -0.0885892 0.589893)
(7.94248 2.52732 -0.1137)
(7.50773 2.69425 -0.623473)
(8.87527 2.29464 -0.369042)
(8.72379 2.56936 -0.540973)
(7.97916 2.98085 -0.18624)
(7.46716 3.01927 -0.722735)
(8.0858 2.26306 -0.0848478)
(7.58171 2.36901 -0.709426)
(8.23131 3.03 -1.37353)
(7.36235 3.09078 -1.44105)
(8.29574 2.14946 -0.182826)
(7.97134 2.15496 -0.781598)
(8.31826 2.7036 -1.28108)
(7.7788 2.66458 -1.11426)
(8.95225 2.20547 -0.373822)
(8.48301 2.45548 -1.20694)
(7.91693 2.41668 -1.04847)
(8.97986 2.24849 -0.577379)
(9.6378 2.08002 -0.408092)
(9.7948 1.91908 -0.479715)
(9.62407 1.9633 -0.703453)
(9.55391 2.05337 -0.7985)
(9.56177 1.77844 -0.691241)
(9.48661 2.08261 -0.786985)
(9.58291 1.91989 -0.27519)
(9.51266 2.0925 -0.331962)
(9.44933 2.20438 -0.668098)
(9.0337 2.02954 -0.611944)
(9.34197 1.71263 -0.523139)
(9.30746 1.88638 -0.322712)
(9.02237 2.22686 -0.286073)
(10.2438 3.18206 -1.05947)
(10.5903 2.75522 -0.987499)
(11.0021 2.088 -0.438756)
(10.9137 1.9866 -0.438856)
(10.3879 2.46983 -0.952901)
(10.6118 2.46017 -0.872186)
(10.7425 2.19356 -0.592128)
(10.7152 2.1217 -0.592372)
(10.495 3.17585 -0.91008)
(10.8238 2.91153 -0.763205)
(9.99885 2.82287 -0.988417)
(10.074 2.91584 -0.975999)
(10.7622 2.62076 -0.379121)
(10.6763 2.41958 -0.350304)
(10.99 2.35029 -0.436171)
(10.4375 2.16261 -0.664946)
(10.1213 2.6237 -0.631209)
(10.1884 2.75089 -0.666434)
(10.4895 2.71332 -0.408563)
(10.4817 2.57524 -0.430449)
(10.4209 2.84034 -0.589646)
(10.3405 2.5078 -0.49878)
(13.083 -0.0379667 0.259932)
(12.8151 -0.0221139 0.231932)
(12.8893 -0.0703422 0.241982)
(12.8168 -0.0196205 0.241475)
(12.899 -0.0708382 0.244631)
(13.1282 -0.0234161 0.27331)
(12.9518 -9.37031e-05 0.265696)
(13.1435 -0.059999 0.227508)
(12.908 -0.0234109 0.238334)
(13.0895 -0.0222224 0.269104)
(13.0525 -0.0926487 0.230219)
(12.9516 -0.0114276 0.258129)
(13.1286 -0.076895 0.222928)
(12.9753 -0.01949 0.253486)
(13.1445 -0.0865778 0.219881)
(13.1285 -0.0468319 0.240545)
(4.99924 -0.443931 -0.189526)
(-0.707988 -1.13905 -0.621126)
(2.36153 1.20831 0.13778)
(2.02125 1.92094 0.0621225)
(10.6126 0.784825 -1.60171)
(10.7866 0.935636 -1.96588)
(4.73348 1.46142 -0.396774)
(5.31669 1.13287 -0.269006)
(11.2071 0.424207 -1.33016)
(11.3785 0.464419 -1.53865)
(-0.0957637 -0.0294753 0.546143)
(6.8568 -0.107275 -0.699659)
(4.79709 0.20686 0.098839)
(5.48257 1.71405 -0.193622)
(10.6218 0.843605 -1.37581)
(11.3417 0.743009 -1.18913)
(12.5411 0.119868 0.304498)
(12.594 0.165595 0.294106)
(12.4811 0.119196 0.244131)
(12.4378 0.120682 0.205944)
(12.4022 0.128931 0.215022)
(12.4157 0.120296 0.263611)
(12.5362 0.127047 0.257005)
(12.6014 0.138113 0.294832)
(12.5262 0.168953 0.303291)
(12.4842 0.108382 0.306856)
(12.3456 0.137332 0.205697)
(12.325 0.103254 0.15562)
(12.381 0.124828 0.225626)
(12.4108 0.122548 0.266965)
(12.3381 0.103568 0.148511)
(12.4057 0.109447 0.161379)
(12.5011 0.111464 0.195337)
(12.4475 0.121771 0.20794)
(9.74146 1.74249 -0.208791)
(9.42331 1.67242 0.537818)
(9.33226 2.04337 0.697324)
(9.71272 1.91011 0.0461433)
(9.60696 2.05824 -0.0832949)
(9.22298 2.51319 0.154802)
(8.71248 2.70665 0.115664)
(9.36838 1.71103 -0.206165)
(9.53523 2.07144 0.460506)
(9.00986 1.91948 0.504609)
(8.85897 2.19202 0.537882)
(8.80004 2.66826 0.241463)
(9.29885 2.4033 0.405268)
(9.7246 1.77804 0.244676)
(9.66958 1.60576 0.242552)
(9.63157 1.64093 -0.148133)
(10.5801 0.654479 -0.301195)
(10.6512 0.65649 -0.252999)
(10.6089 0.601235 -0.287308)
(10.6134 0.767797 -0.327303)
(10.7193 0.832832 -0.23581)
(10.5525 0.548602 -0.304507)
(10.4878 0.632191 -0.372668)
(10.5255 0.720194 -0.401637)
(10.5863 0.736994 -0.394912)
(10.5198 0.726583 -0.436228)
(10.5757 0.735662 -0.3773)
(10.6479 0.740474 -0.420021)
(10.5953 0.730259 -0.4614)
(10.6993 0.757831 -0.365728)
(10.6409 0.728144 -0.356461)
(10.4918 0.596874 -0.338466)
(10.4584 0.626725 -0.395142)
(11.6564 -0.0395335 0.713731)
(11.665 -0.0139625 0.685087)
(11.7855 0.136192 0.586868)
(11.7888 0.168076 0.601365)
(11.7813 0.1778 0.603992)
(11.7781 0.133869 0.581676)
(11.6716 -0.00310666 0.775297)
(11.6497 0.00502724 0.801161)
(11.7833 0.298162 0.72266)
(11.7721 0.38694 0.868937)
(11.6404 0.00180056 0.640995)
(11.7869 0.139465 0.587524)
(11.7944 0.301525 0.725991)
(11.7926 0.335585 0.806425)
(11.6456 0.0228903 0.608618)
(11.8285 0.300809 0.789596)
(11.7139 0.0185424 0.73744)
(10.3995 -1.838 0.698543)
(10.7283 -1.78068 0.664241)
(10.8452 -1.73631 0.785863)
(10.2375 -1.8659 0.778984)
(10.8278 -1.76547 0.508201)
(10.1636 -1.92283 0.715964)
(10.3859 -1.84171 0.236773)
(10.1255 -1.993 0.27414)
(10.8725 -1.71986 0.553184)
(10.9397 -1.73896 0.665168)
(10.896 -1.71299 0.794852)
(10.2857 -1.9475 0.7369)
(9.94005 -2.09856 0.160687)
(10.2796 -1.88962 0.184647)
(10.171 -2.06635 0.13627)
(10.5443 -1.74735 0.233978)
(9.86705 -2.20203 0.231235)
(9.90056 -2.17719 0.187703)
(12.1903 -0.738466 0.331662)
(12.3667 -0.625218 0.367342)
(12.3389 -0.581638 0.343249)
(12.2867 -0.520802 0.171205)
(12.1115 -0.64686 0.152938)
(12.3389 -0.460253 0.290828)
(12.1641 -0.743206 0.334381)
(12.2768 -0.625303 0.348309)
(12.2516 -0.606534 0.3357)
(12.3098 -0.446885 0.291406)
(12.2106 -0.556145 0.164243)
(12.18 -0.628466 0.292451)
(12.2262 -0.509485 0.219883)
(12.0946 -0.765684 0.260005)
(11.9776 -1.05682 0.584546)
(12.0129 -0.992445 0.607519)
(11.958 -0.931547 0.967483)
(12.2552 -0.731789 0.943825)
(11.9757 -0.899047 0.985063)
(11.9513 -0.961366 0.976006)
(11.8098 -1.12373 0.734452)
(12.0432 -0.964428 0.568395)
(12.1125 -0.888462 0.623787)
(11.9131 -1.09246 0.894702)
(11.9218 -1.04307 0.864572)
(11.8599 -1.09685 0.748699)
(12.0459 -0.965668 0.612242)
(12.2913 -0.745178 0.707541)
(12.2919 -0.750203 0.682756)
(11.9097 -1.03931 0.685473)
(12.2652 -0.777155 0.756023)
(12.0167 -0.950034 0.796222)
(10.6592 3.29243 -0.927134)
(11.0287 3.21862 -0.827705)
(11.0207 2.97737 -0.770276)
(10.4361 3.25022 -0.700702)
(10.7473 3.44678 -0.712317)
(11.3654 2.93291 -0.483186)
(11.2143 2.56949 -0.437802)
(11.0418 3.38905 -0.145437)
(11.2538 3.21026 -0.111679)
(10.5903 3.30951 -0.303951)
(11.1155 2.5131 -0.383391)
(11.105 3.54159 -0.337405)
(11.5428 -0.0544673 0.927149)
(12.1352 -0.044393 0.916945)
(11.2773 -0.250632 0.861419)
(12.0832 -0.0318121 0.898197)
(11.3865 -0.000676066 0.937949)
(11.7883 -0.211981 0.789707)
(11.3284 -0.168208 0.847839)
(11.378 -0.229532 0.794251)
(11.6436 -0.239743 0.815932)
(12.3771 -0.0396675 0.754725)
(12.5107 -0.0550558 0.677806)
(12.3372 -0.0791737 0.706383)
(12.1388 -0.162957 0.640495)
(12.2915 -0.165484 0.638051)
(12.4834 -0.0649816 0.671143)
(12.271 -0.153628 0.626843)
(12.3591 -0.112338 1.1889)
(12.1798 0.00817832 1.15034)
(12.2869 -0.0724559 1.16624)
(12.1654 0.0139296 1.10827)
(11.8703 -0.0126067 1.31862)
(11.7795 -0.228504 1.41443)
(11.4315 -0.346722 1.43507)
(11.8493 -0.00387076 1.40649)
(11.8766 -0.00949999 1.28976)
(12.1367 0.0198032 1.1312)
(12.2334 -0.0540895 1.1598)
(12.2207 -0.241377 1.24249)
(11.4902 -0.371479 1.38)
(12.1301 -0.203613 1.20924)
(12.013 -0.363404 1.24603)
(12.02 -0.340378 1.26197)
(12.3849 0.489336 0.557244)
(12.4504 0.505267 0.579849)
(12.5024 0.434955 0.526389)
(12.3134 0.555958 0.388356)
(12.1128 0.735928 0.51886)
(12.3402 0.305039 0.489053)
(12.2682 0.315946 0.478576)
(12.5238 0.600563 0.515125)
(12.4092 0.677946 0.584145)
(12.3514 0.664437 0.411106)
(12.1989 0.750463 0.516166)
(12.3248 0.617123 0.589107)
(12.2647 0.573997 0.562067)
(12.1461 0.537738 0.584021)
(12.2346 0.455413 0.472753)
(12.4144 0.319507 0.492347)
(12.3766 0.379595 0.451169)
(12.299 0.375395 0.471093)
(12.4139 0.551534 0.45418)
(11.0941 -0.30331 -0.725583)
(11.0509 -0.313929 -0.711286)
(11.3917 -0.327099 -0.634087)
(10.7029 -0.341467 -0.739192)
(11.1394 -0.28976 -0.719732)
(10.7621 -0.369251 -0.715731)
(11.0369 -0.376372 -0.724818)
(11.5495 -0.298318 -0.669301)
(10.9904 -0.388066 -0.643982)
(11.7222 -0.34074 -0.542755)
(10.7806 -0.395406 -0.707421)
(11.1361 -0.428991 -0.650262)
(11.1885 -0.443946 -0.570843)
(11.1756 -0.459257 -0.593417)
(9.16644 -0.635623 -0.455369)
(9.1264 -0.626373 -0.453431)
(9.69331 -0.6264 -0.33055)
(9.34458 -0.636773 -0.379382)
(9.43461 -0.626902 -0.389516)
(9.483 -0.595286 -0.411029)
(10.0588 -0.526972 -0.309465)
(9.86704 -0.543243 -0.531013)
(9.73014 -0.537502 -0.530202)
(10.4948 -0.472472 -0.360308)
(10.3425 -0.486429 -0.361029)
(9.307 -0.60754 -0.558406)
(10.23 -0.465182 -0.371489)
(10.0375 -0.493094 -0.494674)
(10.0282 -0.47898 -0.481717)
(10.4868 -0.481469 -0.36866)
(10.3913 -0.478091 -0.36651)
(10.103 -0.441371 -0.452162)
(11.6573 1.32152 -0.188275)
(11.2557 1.42536 -0.603604)
(10.9402 1.5551 -0.856792)
(12.3105 0.65236 -0.292394)
(12.2219 0.869895 -0.259282)
(11.6608 1.14286 -0.518479)
(11.8721 1.06678 -0.206869)
(12.4272 0.605852 -0.285729)
(12.2573 0.875745 -0.231123)
(11.2702 1.1279 -0.822815)
(11.8023 0.85917 -0.634935)
(4.83871 -1.08621 -0.721214)
(5.06387 -1.13285 -0.676997)
(4.63494 -0.793401 -0.636338)
(4.40172 -0.69986 -0.686394)
(2.92575 -0.11349 -0.971927)
(2.13229 0.112653 -0.578478)
(2.30016 0.256854 -0.995408)
(1.79965 0.210385 -0.710869)
(5.526 -1.28859 -0.80269)
(5.95113 -1.36548 -0.763387)
(4.56505 -0.896755 -0.548595)
(3.79576 -0.48651 -0.571109)
(3.7482 -0.365412 -0.586076)
(3.04329 -0.266195 -0.466325)
(3.02784 -0.102048 -0.488995)
(3.03613 -0.159553 -0.461499)
(2.39427 0.00631805 -0.681267)
(5.61842 -1.19874 -0.690009)
(5.24819 -1.03395 -0.727788)
(5.64989 -1.2067 -0.681608)
(4.97359 -0.982416 -0.885637)
(13.286 -0.139718 0.287311)
(13.2917 -0.143936 0.256271)
(13.2929 -0.0812992 0.305236)
(13.3144 -0.108304 0.269788)
(13.2927 -0.0915901 0.311947)
(13.2747 -0.145287 0.281562)
(13.2768 -0.14342 0.293551)
(13.28 -0.0722573 0.285874)
(13.2504 -0.0624946 0.311135)
(13.1642 -0.0732911 0.332439)
(13.1752 -0.0891357 0.312506)
(13.1219 -0.0730035 0.340156)
(13.2789 -0.080006 0.279546)
(13.1657 -0.0662558 0.32794)
(13.0888 -0.0602942 0.317388)
(13.1894 -0.0730414 0.294421)
(13.0943 -0.0499345 0.316913)
(12.1337 0.348489 1.16117)
(11.9954 0.344186 1.19235)
(11.7395 0.231278 1.3565)
(11.1318 0.269693 1.39944)
(12.1044 0.343705 1.20885)
(11.9949 0.318674 1.27949)
(11.0648 0.800375 0.833192)
(11.0795 0.619237 1.03699)
(11.8427 0.252222 1.33632)
(11.114 0.334268 1.3438)
(11.2236 0.582885 1.34227)
(8.25311 0.289929 0.486575)
(8.26397 0.377336 0.361734)
(8.09765 0.423992 0.39612)
(6.39026 0.197644 0.173703)
(7.48799 0.263161 0.499745)
(5.3653 0.178016 0.169843)
(4.74915 0.181638 0.153374)
(6.00204 0.233881 0.523849)
(7.42012 0.328833 0.632532)
(7.68845 0.295002 0.480299)
(5.72167 0.265322 0.466122)
(6.10441 0.261007 0.396488)
(6.02946 0.316545 0.56908)
(12.2268 -0.342278 -0.32322)
(12.1797 -0.31708 -0.311918)
(12.2771 -0.356256 -0.228181)
(12.3125 -0.354997 -0.22706)
(12.1343 -0.405696 -0.328024)
(12.1342 -0.38974 -0.313448)
(12.1064 -0.365238 -0.387453)
(12.0766 -0.363365 -0.394566)
(12.2475 -0.317846 -0.224009)
(12.3306 -0.338362 -0.241024)
(12.113 -0.316896 -0.329018)
(12.1396 -0.30275 -0.308712)
(12.3578 -0.343755 -0.207305)
(12.0851 -0.379562 -0.355667)
(12.298 -0.329975 -0.189166)
(12.2604 -0.327708 -0.217116)
(12.1097 -0.317694 -0.30008)
(12.1524 -0.311126 -0.271024)
(12.242 -0.324069 -0.208491)
(12.2492 -0.328708 -0.198118)
(12.2172 -0.329899 -0.231711)
(12.1352 -0.345205 -0.296688)
(11.879 -0.456166 -0.48693)
(12.3946 -0.411607 -0.419681)
(11.6539 -0.353084 -0.574701)
(12.4419 -0.314747 -0.456815)
(12.4642 -0.424016 -0.41791)
(11.4045 -0.448667 -0.473489)
(11.5936 -0.304488 -0.586528)
(12.4545 -0.308239 -0.455861)
(12.0215 -0.31649 -0.549653)
(11.38 -0.449469 -0.463072)
(11.9374 -0.418795 -0.396951)
(11.9852 -0.44082 -0.430399)
(11.228 -0.353086 -0.630479)
(12.408 -0.321774 -0.469343)
(12.0046 -0.307665 -0.557127)
(11.0972 -0.371249 -0.671961)
(11.6123 -0.328274 -0.664099)
(12.1644 -0.387722 -0.486776)
(12.4437 -0.401117 -0.432776)
(12.4155 -0.385595 -0.456439)
(12.5762 0.527658 0.263646)
(12.4529 0.570351 0.259919)
(12.4344 0.604727 0.341019)
(12.472 0.585843 0.428115)
(12.5449 0.521116 0.251642)
(12.4642 0.556087 0.260763)
(12.4331 0.593997 0.445179)
(12.3647 0.619499 0.376716)
(12.6246 0.509973 0.36315)
(12.5989 0.485056 0.442679)
(12.6375 0.487474 0.400816)
(12.5486 0.509468 0.288101)
(12.5144 0.510161 0.285019)
(12.4478 0.556725 0.270835)
(12.6565 0.487447 0.402106)
(12.6204 0.48416 0.462046)
(12.5528 0.486409 0.393547)
(12.419 0.553685 0.27132)
(12.3381 0.600509 0.383529)
(12.3857 0.589991 0.472514)
(12.3547 0.568573 0.391738)
(12.3394 0.591773 0.4384)
(11.2964 0.32208 1.04963)
(11.3413 0.40959 1.05691)
(12.3494 0.314763 0.971208)
(12.29 0.358378 0.944837)
(12.1792 0.291254 1.06287)
(12.0784 0.360914 1.09294)
(12.1956 0.290589 1.01523)
(12.1566 0.278354 1.06728)
(11.9474 0.259854 1.04583)
(11.3963 0.301103 1.02631)
(11.3238 0.270018 0.991119)
(11.4471 0.321456 0.962205)
(12.1345 0.434258 0.986267)
(12.1993 0.381156 0.884826)
(12.2862 0.328528 0.921268)
(11.5583 0.327846 1.00009)
(11.8121 0.386714 0.927714)
(12.3914 0.527618 0.722248)
(12.3994 0.612086 0.703801)
(12.6474 0.322508 0.669212)
(12.6106 0.414204 0.625104)
(12.6644 0.349405 0.642099)
(12.7859 0.33068 0.650247)
(12.8189 0.296551 0.615988)
(12.7065 0.48871 0.560521)
(12.671 0.473083 0.569541)
(12.6242 0.581976 0.550554)
(12.6982 0.562703 0.553591)
(12.8098 0.364026 0.614237)
(12.6927 0.624407 0.557976)
(12.6135 0.629086 0.55314)
(10.9855 0.793729 -0.459784)
(10.9231 0.729985 -0.310213)
(10.8675 0.68303 -0.305813)
(10.9267 0.731031 -0.485813)
(10.8583 0.727596 -0.488774)
(10.9712 0.593588 -0.347522)
(10.9105 0.532396 -0.316301)
(11.0105 0.652268 -0.360667)
(10.9675 0.589544 -0.35725)
(10.8931 0.540774 -0.324453)
(13.0691 -0.171916 0.504383)
(13.0679 -0.195187 0.503259)
(12.9977 -0.144267 0.561141)
(13.0004 -0.144372 0.521395)
(13.0587 -0.23157 0.533205)
(13.0407 -0.236308 0.54401)
(13.03 -0.157617 0.527698)
(13.0007 -0.126406 0.539151)
(13.0431 -0.230042 0.549148)
(12.9844 -0.118463 0.567705)
(12.9954 -0.148429 0.592897)
(12.9871 -0.12313 0.596947)
(12.984 -0.103639 0.569892)
(13.0027 -0.194238 0.588287)
(12.9934 -0.101331 0.569924)
(12.989 -0.117086 0.590586)
(12.9947 -0.187917 0.58268)
(8.34621 0.149249 0.183397)
(8.26352 0.129796 0.226452)
(8.13754 0.181543 0.266676)
(7.54148 -0.0512873 0.0359575)
(7.53316 0.00150504 -0.0264174)
(8.03248 0.190914 0.160317)
(8.28099 -0.29278 -0.356101)
(8.30655 -0.227974 -0.327569)
(8.13104 -0.180232 -0.269169)
(7.94801 -0.184505 -0.232463)
(8.21494 0.211427 0.295913)
(8.28656 0.193496 0.219132)
(8.32669 0.00244764 0.113337)
(8.35412 0.0889275 0.125708)
(7.884 -0.152357 -0.22238)
(7.91079 -0.059838 -0.183142)
(7.57664 0.0182694 -0.0529536)
(8.17729 0.190507 0.147657)
(8.31238 -0.021433 0.0730384)
(8.18282 0.0808497 0.0387223)
(11.7767 0.00510703 0.476825)
(11.6263 -0.058008 0.465326)
(11.6192 0.00663307 0.446926)
(11.7378 0.0319183 0.472103)
(11.6103 -0.10092 0.485282)
(11.3197 -0.0697717 0.481502)
(11.546 -0.168986 0.472255)
(11.7929 -0.0129498 0.434501)
(11.7848 0.00780952 0.461663)
(11.7273 -0.0505727 0.465055)
(11.3537 -0.189682 0.414213)
(11.2923 -0.0991459 0.479125)
(11.7529 0.0347118 0.463345)
(11.5056 -0.0685441 0.461198)
(11.5143 -0.106719 0.443457)
(11.2575 -0.155713 0.440382)
(3.02727 0.0454106 0.507425)
(3.09318 -0.208519 0.693033)
(1.86614 -0.179456 0.910761)
(1.67738 0.0961655 0.812958)
(6.12575 -0.515698 0.318398)
(4.37386 -0.457354 0.283429)
(7.64868 -0.215495 0.276753)
(5.33997 0.198709 0.307254)
(2.81772 0.513819 0.918862)
(4.37028 -0.107402 0.666154)
(7.55545 -0.238833 0.203003)
(5.61154 -0.20568 0.364276)
(4.44019 0.333318 0.277293)
(12.4356 -0.0105037 1.0286)
(12.3873 0.0887795 1.09719)
(12.4853 -0.0370953 0.992941)
(12.5866 -0.0660626 0.889956)
(12.7384 -0.0759227 0.828887)
(12.6582 -0.0486041 0.932777)
(12.366 0.112852 1.10607)
(12.4849 0.203597 0.943695)
(12.6108 0.0417397 0.892199)
(12.56 -0.0383947 0.857924)
(12.8059 -0.0113683 0.783792)
(12.504 0.264216 0.898054)
(11.8223 0.355067 -0.169996)
(11.7783 0.265634 -0.19118)
(11.8281 0.229246 -0.206824)
(11.9176 0.357002 -0.147186)
(11.8582 0.304197 -0.143378)
(11.8961 0.279212 -0.163645)
(12.0487 0.337353 -0.188028)
(12.1385 0.343151 -0.203734)
(12.0435 0.252063 -0.196155)
(11.9984 0.240601 -0.193686)
(12.0692 0.552041 -0.285753)
(12.1532 0.545238 -0.286397)
(11.9933 0.496589 -0.296508)
(12.054 0.486632 -0.280928)
(11.9014 0.490644 -0.296806)
(11.9448 0.412948 -0.215391)
(11.9537 0.329072 -0.154655)
(12.0046 0.503454 -0.273461)
(12.031 0.386302 -0.193168)
(11.688 -0.353255 0.271707)
(11.6391 -0.305615 0.341693)
(11.9118 -0.286102 0.20819)
(11.8908 -0.228223 0.257747)
(11.9326 -0.220159 0.27898)
(12.3043 -0.270009 0.36557)
(12.1245 -0.276279 0.369719)
(11.7908 -0.294433 0.309625)
(12.083 -0.337635 0.24141)
(12.7605 -0.214888 0.504641)
(12.7558 -0.232855 0.481944)
(11.9593 -0.293548 0.382237)
(12.7383 -0.290982 0.355345)
(12.5317 -0.300548 0.338031)
(12.6928 -0.230762 0.436972)
(12.8832 -0.227037 0.488319)
(12.9035 -0.21667 0.447482)
(12.5835 -0.296155 0.40782)
(12.8338 -0.221122 0.407041)
(0.73949 0.796025 -0.917046)
(0.781292 0.614984 -1.22373)
(1.47915 0.34212 -0.944319)
(1.35372 0.422267 -0.83058)
(1.03163 0.507834 -1.09681)
(1.03434 0.479354 -1.14796)
(1.7927 0.24425 -1.17619)
(2.11295 0.0946281 -1.25915)
(2.32015 -0.073525 -1.09155)
(2.11013 0.180751 -1.22645)
(2.68767 -0.123096 -1.06146)
(2.9711 -0.300938 -1.19167)
(2.09652 0.12616 -0.888091)
(2.71104 -0.235383 -1.13035)
(2.19717 0.110927 -0.993669)
(1.55271 0.314783 -1.14197)
(11.016 0.466529 -0.331362)
(10.9343 0.436193 -0.259709)
(10.9952 0.437128 -0.340944)
(11.088 0.499786 -0.411432)
(11.0345 0.497357 -0.693004)
(10.9511 0.492552 -0.687262)
(10.9352 0.443672 -0.322553)
(11.0506 0.509018 -0.558105)
(10.9929 0.520027 -0.684125)
(10.9418 0.491346 -0.694683)
(10.9125 0.366605 -0.391504)
(11.0115 0.426253 -0.5038)
(10.9863 0.509612 -0.511154)
(10.8657 0.3774 -0.397909)
(10.8157 0.382076 -0.407072)
(10.8926 0.472012 -0.534663)
(8.19576 0.291038 -0.698152)