/*--------------------------------*- C++ -*----------------------------------*\
  =========                 |
  \\      /  F ield         | OpenFOAM: The Open Source CFD Toolbox
   \\    /   O peration     | Website:  https://openfoam.org
    \\  /    A nd           | Version:  10
     \\/     M anipulation  |
\*---------------------------------------------------------------------------*/
FoamFile
{
    format      ascii;
    class       volScalarField;
    location    "7";
    object      C;
}
// * * * * * * * * * * * * * * * * * * * * * * * * * * * * * * * * * * * * * //

dimensions      [1 3 0 0 0 0 0];

internalField   nonuniform List<scalar> 
75457
(
0.486746
0.485681
0.490717
0.494295
0.494105
0.494025
0.490391
0.489739
0.49859
0.498571
0.49861
0.495771
0.496073
0.498036
0.272519
0.293454
0.362999
0.33629
0.311815
0.343455
0.330985
0.337975
0.313151
0.316797
0.352152
0.289802
0.273801
0.0590728
0.0475778
0.0498825
0.0445575
0.0353149
0.0330725
0.0641587
0.0551475
0.0632107
0.0685538
0.0390667
0.0368088
0.0490687
0.0559639
0.0447894
0.0556375
0.449941
0.440072
0.463829
0.461622
0.448769
0.320648
0.335166
0.344244
0.33261
0.309589
0.327662
0.349519
0.359464
0.325594
0.333809
0.327916
0.314493
0.321023
0.346559
0.5
0.5
0.5
0.5
0.5
0.5
0.5
0.5
0.5
0.5
0.5
0.5
0.5
0.5
0.5
0.0106401
0.00293568
0.000104244
0.017814
0.00367741
0.00111893
0.000135988
9.52589e-05
4.83657e-05
0.000278963
0.000712509
0.00396743
0.010554
3.14629e-06
0.000120478
0.00389092
1.05663e-05
0.495282
0.496623
0.496588
0.497215
0.494911
0.495746
0.496803
0.496245
0.5
0.5
0.5
0.5
0.5
0.5
0.5
0.5
0.5
0.5
0.5
0.5
0.5
0.5
0.5
0.5
0.5
0.5
0.5
0.5
0.5
0.5
0.5
0.5
0.5
0.5
0.5
0.5
0.5
0.5
0.5
0.5
0.5
0.5
0.5
0.5
0.5
0.5
0.5
0.5
0.5
0.5
0.5
0.5
0.5
0.5
0.5
0.5
0.5
0.5
0.5
0.5
0.5
0.5
0.5
0.5
0.5
0.5
0.5
0.5
0.5
0.5
0.5
0.5
0.5
0.5
0.5
0.5
0.5
0.5
0.5
0.5
0.5
0.5
0.499993
0.499992
0.499996
0.499992
0.499995
0.499992
0.499992
0.499989
0.499987
0.499989
0.499988
0.499986
0.499984
0.499986
0.450871
0.44266
0.439088
0.424242
0.412254
0.420415
0.5
0.5
0.5
0.5
0.5
0.5
0.5
0.5
0.5
0.5
0.5
0.497351
0.497159
0.496753
0.496418
0.496771
0.496371
0.496629
0.495058
0.494287
0.495963
0.496114
0.495871
0.495481
0.495211
0.5
0.5
0.5
0.5
0.5
0.5
0.5
0.5
0.5
0.5
0.5
0.5
0.5
0.5
0.482726
0.479217
0.4759
0.47768
0.480117
0.47797
0.485517
0.48068
0.476042
0.474452
0.471609
0.478667
0.484199
0.473485
0.476263
0.481905
0.478796
0.46247
0.463617
0.468704
0.466187
0.4737
0.473319
0.467472
0.481043
0.483144
0.482245
0.466207
0.468949
0.463704
0.46377
0.455048
0.459414
0.468966
0.475373
0.469841
0.473877
0.470996
0.464078
0.468714
0.460667
0.472721
0.499964
0.499972
0.499956
0.499984
0.49998
0.499982
0.499979
0.499987
0.499984
0.499972
0.499977
0.49997
0.499987
0.499976
0.499985
0.00579542
0.00688926
0.00452772
0.0049866
0.0049697
0.00862054
0.0071518
0.0058603
0.00733315
4.85255e-06
5.19721e-06
1.27348e-05
9.69052e-06
7.30252e-06
5.41731e-06
8.9014e-06
1.23286e-05
4.01922e-06
6.96585e-06
8.38138e-06
5.00228e-06
6.85241e-06
0.0012313
7.67667e-05
2.56857e-05
0.000801491
0.00119989
0.000926974
0.000938952
1.19464e-05
3.24593e-05
0.000114009
6.67954e-05
0.478149
0.480056
0.482875
0.481822
0.479434
0.474036
0.476562
0.483422
0.480635
0.481506
0.485081
0.482391
0.478361
0.476939
0.485325
0.47701
0.47986
0.0209132
0.0351241
0.0221722
0.0717545
0.0173463
0.0154213
0.0137063
0.0592831
0.0256836
0.0486623
0.0426726
0.145907
0.158574
0.1738
0.158332
0.13778
0.126526
0.113754
0.144221
0.158896
0.129391
0.148615
0.017519
0.0204529
0.0191411
0.0229614
0.0170114
0.0150661
0.0182639
0.0162895
0.0196176
0.0223355
0.0150832
0.0142147
0.0185147
0.0217084
0.0186538
0.00698172
0.00454146
0.00503831
0.00972326
0.00282888
0.436121
0.444957
0.43709
0.439826
0.451401
0.446736
0.451347
0.5
0.5
0.5
0.5
0.5
0.5
0.5
0.5
0.5
0.5
0.5
0.5
0.5
0.5
0.5
0.5
0.5
0.5
0.5
0.5
0.5
0.5
0.5
0.5
0.5
0.5
0.5
0.5
0.5
0.5
0.5
0.5
0.5
0.5
0.5
0.5
0.5
0.5
0.5
0.5
0.5
0.5
0.5
0.5
0.5
0.5
0.5
0.5
0.5
0.5
0.5
0.5
0.5
0.498438
0.489343
0.490752
0.489928
0.491434
0.499066
0.494278
0.497466
0.491154
0.498585
0.493963
0.493687
0.497006
0.493417
0.496791
0.498542
0.497916
0.494567
0.495714
0.496002
0.499223
0.499166
0.497172
0.49712
0.499539
0.499563
0.492839
0.498292
0.497768
0.49753
0.499204
0.499506
0.5
0.5
0.5
0.5
0.5
0.5
0.5
0.5
0.5
0.5
0.5
0.5
0.5
0.5
0.5
0.5
0.5
0.5
0.5
0.5
0.5
0.5
0.5
0.5
0.5
0.5
0.5
0.5
0.5
0.5
0.5
0.5
0.5
0.5
0.5
0.5
0.5
0.5
0.5
0.5
0.5
0.5
0.5
0.5
0.5
0.5
0.5
0.5
0.5
0.5
0.5
0.5
0.5
0.5
0.5
0.5
0.5
0.5
0.5
0.5
0.5
0.5
0.5
0.5
0.5
0.5
0.5
0.5
0.180442
0.201587
0.217142
0.191936
0.207806
0.179443
0.186233
0.166133
0.221972
0.235104
0.226918
0.199801
0.166834
0.205231
0.199562
0.215052
0.170112
0.181775
0.283491
0.309367
0.295204
0.2786
0.267038
0.285914
0.270568
0.279499
0.260159
0.267253
0.263601
0.242037
0.249625
0.254902
0.324295
0.322378
0.317272
0.347194
0.331638
0.324947
0.312541
0.339621
0.336971
0.328461
0.335949
0.324538
0.342237
0.351059
0.358558
0.337582
0.360493
0.345888
0.5
0.5
0.5
0.5
0.5
0.5
0.5
0.5
0.5
0.5
0.5
0.5
0.444568
0.465299
0.447659
0.465992
0.444536
0.455972
0.45079
0.454079
0.454647
0.474088
0.478695
0.47911
0.475898
0.474632
0.479675
0.47645
0.283082
0.265331
0.266147
0.256724
0.249342
0.251466
0.211322
0.225024
0.242186
0.248471
0.255861
0.27657
0.228397
0.241814
0.247012
0.255546
0.5
0.5
0.5
0.5
0.5
0.5
0.5
0.5
0.5
0.5
0.5
0.5
0.5
0.5
0.5
0.5
0.5
0.5
0.5
0.175226
0.160167
0.151973
0.16083
0.183192
0.142232
0.191742
0.221168
0.13927
0.202257
0.154809
0.190228
0.159898
0.176883
0.0190801
0.0161453
0.0260177
0.0250889
0.0187404
0.0315666
0.0358821
0.0283721
0.0288946
0.0536146
0.0407074
0.0288498
0.0495806
0.0356995
0.0417162
0.0462608
0.0389728
0.0444853
0.498125
0.49646
0.496152
0.499368
0.49925
0.49689
0.498347
0.499325
0.499211
0.496458
0.497285
0.0252207
0.0286286
0.0308358
0.0266998
0.0125187
0.0106624
0.00856055
0.00809879
0.0422806
0.054908
0.0371769
0.0324113
0.0282221
0.019816
0.0217326
0.0222321
0.0137073
0.054203
0.0460135
0.0553204
0.0390102
0.499402
0.499348
0.499783
0.499591
0.499749
0.499245
0.499339
0.499757
0.499843
0.499668
0.499488
0.49961
0.499703
0.499722
0.499695
0.499619
0.499772
0.305527
0.293095
0.292003
0.259205
0.315247
0.304492
0.261858
0.255608
0.302473
0.265059
0.277551
0.0526603
0.0465227
0.0461303
0.0222385
0.0396731
0.0114487
0.00824518
0.0237192
0.0388439
0.0373459
0.0139767
0.0165422
0.0199345
0.245242
0.228163
0.218138
0.236194
0.209606
0.196398
0.216223
0.199879
0.232855
0.249954
0.195546
0.213945
0.248958
0.18763
0.227588
0.205801
0.19233
0.204842
0.199049
0.208008
0.21778
0.182377
0.385864
0.414269
0.366849
0.416609
0.411796
0.330757
0.358656
0.411846
0.376668
0.309707
0.343789
0.364518
0.317446
0.402056
0.368533
0.297235
0.327941
0.355561
0.402879
0.392419
0.3577
0.347352
0.342855
0.345223
0.34835
0.340269
0.331298
0.326401
0.360508
0.34148
0.350275
0.33906
0.326102
0.330391
0.359194
0.345156
0.325951
0.318963
0.316957
0.320592
0.303484
0.312272
0.226206
0.233337
0.303085
0.30565
0.285054
0.279513
0.270658
0.275634
0.253343
0.224179
0.230795
0.242793
0.288604
0.282552
0.285597
0.233104
0.251481
0.475736
0.474443
0.480655
0.481374
0.482409
0.480231
0.4836
0.479428
0.480995
0.477587
0.476784
0.480984
0.474262
0.474243
0.5
0.5
0.5
0.5
0.5
0.5
0.5
0.5
0.5
0.5
0.487976
0.48632
0.482072
0.484874
0.48381
0.484195
0.486632
0.488787
0.480845
0.483092
0.481767
0.483922
0.485267
0.478831
0.486917
0.485581
0.480674
0.309232
0.322903
0.321174
0.287446
0.267706
0.294473
0.324132
0.312578
0.288291
0.282987
0.329809
0.313046
0.31388
0.303075
0.293976
0.266937
0.260342
0.295983
0.292652
0.280603
0.5
0.5
0.5
0.5
0.5
0.5
0.5
0.5
0.5
0.5
0.5
0.5
0.5
0.5
0.5
0.5
0.244916
0.245347
0.223891
0.214859
0.372472
0.316428
0.403611
0.31574
0.238635
0.292085
0.403601
0.322754
0.275001
0.442801
0.442323
0.448518
0.460308
0.462196
0.452377
0.444577
0.452688
0.456675
0.463218
0.467588
0.455922
0.5
0.5
0.5
0.5
0.5
0.5
0.5
0.5
0.5
0.5
0.5
0.5
0.5
0.5
0.5
0.5
0.5
0.5
0.5
0.470041
0.466704
0.477079
0.475769
0.47547
0.480233
0.475398
0.469096
0.479319
0.487212
0.488145
0.469389
0.4891
0.484459
0.48748
0.4897
0.491278
0.483943
0.490631
0.000515009
0.000893055
0.00253942
0.00130827
0.000859683
0.00149436
0.00082247
0.00157471
0.00243024
0.00237126
0.00536687
0.00499324
0.00478061
0.00406273
0.00520242
0.00248793
0.5
0.5
0.5
0.5
0.5
0.5
0.5
0.5
0.5
0.5
0.5
0.5
0.5
0.5
0.5
0.5
0.434148
0.345064
0.443684
0.356715
0.434657
0.299329
0.47672
0.443236
0.483486
0.483669
0.476952
0.441458
0.349808
0.279381
0.435097
0.477451
0.477342
0.477801
0.441792
0.329515
0.5
0.5
0.5
0.5
0.5
0.5
0.5
0.5
0.5
0.5
0.5
0.5
0.5
0.5
0.5
0.499997
0.499997
0.499993
0.499991
0.499992
0.499993
0.49999
0.499994
0.499967
0.49994
0.49995
0.499988
0.499941
0.499944
0.499684
0.499549
0.499858
0.499681
0.499711
0.499659
0.499826
0.499939
0.499751
0.499888
0.499841
0.499946
0.499849
0.499934
0.499943
0.499939
0.412352
0.404945
0.412316
0.422333
0.398997
0.406672
0.40496
0.414045
0.427644
0.400447
0.395131
0.402271
0.4081
0.426499
0.3901
0.415995
0.404168
0.417996
0.408067
0.495388
0.48703
0.48826
0.492899
0.494609
0.483043
0.488947
0.487959
0.490494
0.489139
0.495114
0.492073
0.493638
0.49353
0.486528
0.487429
0.493868
0.487011
0.485198
0.481231
0.494574
0.492001
0.480205
0.485195
0.494314
0.5
0.5
0.5
0.5
0.5
0.5
0.5
0.5
0.5
0.5
0.5
0.5
0.5
0.5
0.5
0.5
0.5
0.5
0.5
0.5
0.499998
0.499998
0.499998
0.499997
0.499998
0.499998
0.499998
0.499997
0.499998
0.499997
0.499996
0.499997
0.357421
0.368189
0.332137
0.331329
0.317225
0.3724
0.369418
0.358871
0.34583
0.352246
0.327033
0.337457
0.339006
0.348028
0.351956
0.351882
0.35835
0.365628
0.143966
0.123817
0.135703
0.113766
0.133292
0.181315
0.166558
0.174475
0.156041
0.128762
0.140661
0.154584
0.197131
0.178542
0.165101
0.153595
0.182521
0.164566
0.138128
0.135912
0.14902
0.146195
0.125562
0.151117
0.126464
0.114265
0.16776
0.140471
0.153744
0.138018
0.1234
0.116973
0.138487
0.171187
0.155993
0.0108939
0.0166602
0.0120618
0.0322674
0.0207168
0.0218244
0.0301349
0.0196064
0.005436
0.498625
0.498445
0.497799
0.498369
0.497317
0.497569
0.497124
0.497406
0.497968
0.498043
0.496899
0.497751
0.324709
0.314251
0.320728
0.319558
0.328559
0.33888
0.328417
0.334735
0.343849
0.341437
0.348214
0.33801
0.333775
0.344601
0.345007
0.349228
0.5
0.5
0.5
0.5
0.5
0.5
0.5
0.5
0.5
0.5
0.484587
0.481902
0.488524
0.487536
0.487743
0.485569
0.488744
0.488498
0.476374
0.486457
0.483756
0.483266
0.48612
0.485263
0.482313
0.479852
0.480628
0.487507
0.412167
0.415161
0.402199
0.421891
0.42962
0.409858
0.414545
0.405155
0.426115
0.440309
0.434285
0.431328
0.425002
0.434263
0.423138
0.428708
0.434152
0.427508
0.5
0.5
0.5
0.5
0.5
0.5
0.5
0.5
0.5
0.5
0.5
0.5
0.5
0.5
0.5
0.5
0.5
0.5
0.5
0.5
0.5
0.5
0.5
0.5
0.5
0.5
0.5
0.5
0.5
0.5
0.5
0.5
0.5
0.5
0.487468
0.486828
0.486196
0.488519
0.484568
0.484515
0.487143
0.485844
0.491645
0.487709
0.485728
0.492361
0.493677
0.487259
0.494151
0.493558
0.492511
0.493958
0.495008
0.499778
0.499891
0.49988
0.499966
0.498674
0.498507
0.499161
0.498901
0.499905
0.499886
0.498957
0.499574
0.499956
0.499001
0.498373
0.499222
0.499732
0.499217
0.499757
0.499422
0.081064
0.099306
0.0671018
0.110608
0.0859382
0.0813956
0.0841469
0.0615548
0.104169
0.0947675
0.0675397
0.0870362
0.0610624
0.0778861
0.0680421
0.0955844
0.120357
0.114446
0.0861383
0.00776203
0.00892863
0.0136802
0.00944887
0.00746203
0.00503318
0.0329119
0.0324531
0.0287971
0.0724984
0.0609211
0.00691066
0.0195724
0.0464066
0.0166822
0.0137076
0.5
0.5
0.5
0.5
0.5
0.5
0.5
0.5
0.5
0.5
0.5
0.5
0.5
0.5
0.5
0.5
0.5
0.5
0.5
0.5
0.5
0.5
0.5
0.5
0.5
0.5
0.5
0.5
0.5
0.5
0.5
0.5
0.5
0.5
0.5
0.5
0.5
0.5
0.5
0.5
0.5
0.5
0.5
0.5
0.5
0.5
0.5
0.5
0.5
0.5
0.5
0.5
0.5
0.5
0.5
0.5
0.5
0.286948
0.282997
0.302957
0.290856
0.29884
0.291131
0.281032
0.311917
0.282751
0.30238
0.2921
0.281251
0.5
0.5
0.5
0.5
0.5
0.5
0.5
0.5
0.5
0.5
0.5
0.5
0.5
0.5
0.5
0.5
0.5
0.5
0.5
0.5
0.5
0.5
0.5
0.5
0.5
0.5
0.5
0.5
0.5
0.5
0.5
0.5
0.5
0.5
0.5
0.5
0.5
0.5
0.5
0.5
0.5
0.5
0.5
0.5
0.5
0.5
0.5
0.5
0.5
0.5
0.5
0.5
0.5
0.5
0.5
0.5
0.5
0.5
0.5
0.5
0.5
0.5
0.5
0.5
0.5
0.5
0.5
0.5
0.499998
0.499999
0.499997
0.499996
0.499996
0.499994
0.499998
0.499998
0.499997
0.499998
0.499997
0.499998
0.499999
0.499998
0.499999
0.499998
0.5
0.5
0.5
0.5
0.5
0.5
0.5
0.5
0.5
0.5
0.5
0.5
0.5
0.5
0.5
0.5
0.5
0.5
0.5
0.5
0.5
0.5
0.5
0.5
0.5
0.5
0.5
0.5
0.5
0.5
0.5
0.5
0.5
0.5
0.499876
0.499916
0.49991
0.499861
0.499931
0.499604
0.499238
0.499866
0.499205
0.499504
0.49974
0.49938
0.499275
0.499849
0.0254226
0.0217423
0.0215382
0.0483309
0.5
0.5
0.5
0.5
0.5
0.5
0.5
0.5
0.5
0.5
0.5
0.5
0.5
0.5
0.5
0.5
0.5
0.5
0.5
0.5
0.5
0.5
0.0461505
0.0739686
0.0432543
0.0222422
0.0527837
0.0766259
0.0689167
0.056466
0.0513486
0.0334093
0.0167303
0.0450302
0.0273933
0.0119906
0.0274664
0.0292968
0.245351
0.268359
0.230996
0.230027
0.269595
0.258428
0.244524
0.253846
0.257764
0.267793
0.247818
0.212865
0.216883
0.195912
0.242518
0.228186
0.2432
0.256489
0.239629
0.228347
0.210513
0.224831
0.352339
0.358803
0.374401
0.360075
0.385449
0.398516
0.375762
0.382938
0.343208
0.397058
0.386236
0.390168
0.377173
0.372958
0.363188
0.401537
0.398036
0.388424
0.382917
0.307494
0.294419
0.274839
0.30694
0.29377
0.283432
0.324206
0.312039
0.269394
0.294267
0.263764
0.246024
0.22928
0.257837
0.238102
0.289638
0.29074
0.274891
0.246419
0.239526
0.261853
0.218099
0.5
0.5
0.5
0.5
0.5
0.5
0.5
0.5
0.5
0.5
0.5
0.5
0.5
0.5
0.5
0.5
0.5
0.5
0.5
0.497898
0.497356
0.497238
0.497679
0.498019
0.49747
0.497917
0.498418
0.497796
0.498308
0.497745
0.495484
0.496437
0.496549
0.496788
0.495946
0.497159
0.499997
0.499996
0.499994
0.499995
0.499996
0.499995
0.499993
0.499995
0.499995
0.499991
0.499994
0.499993
0.499991
0.499992
0.0659456
0.0643925
0.0788827
0.0710033
0.0832458
0.113024
0.079747
0.104443
0.114075
0.145815
0.170449
0.126542
0.101954
0.134954
0.155267
0.108132
0.116189
0.0187794
0.019884
0.0230224
0.0211175
0.0226508
0.0256692
0.0167107
0.0175402
0.0263526
0.0232794
0.0268017
0.0297838
0.0260202
0.0290512
0.0185002
0.0260521
0.0309428
0.0316783
0.0328097
0.0271437
0.0242481
0.022622
0.0203744
0.0172314
0.0194303
0.015883
0.0200736
0.0211202
0.0198765
0.0231907
0.0254353
0.0244473
0.0267044
0.0285386
0.0305274
0.0316322
0.0339799
0.0362382
0.0253018
0.0301402
0.120536
0.118477
0.156801
0.135752
0.175281
0.149731
0.127459
0.138962
0.125154
0.151902
0.154059
0.165392
0.161595
0.194027
0.129958
0.151716
0.164942
0.5
0.5
0.5
0.5
0.5
0.5
0.5
0.5
0.5
0.5
0.418154
0.429318
0.428355
0.421692
0.451257
0.442544
0.430846
0.432846
0.438846
0.434705
0.449139
0.455231
0.437616
0.442006
0.438655
0.432397
0.450431
0.443999
0.491155
0.489108
0.489512
0.487831
0.492529
0.490795
0.486062
0.487544
0.490508
0.48904
0.489281
0.491164
0.49099
0.0452246
0.0397338
0.0475911
0.0420186
0.0407425
0.0542912
0.0446379
0.0394367
0.0343264
0.0393264
0.0493677
0.040306
0.0331862
0.0350589
0.467734
0.473065
0.457086
0.467502
0.468758
0.463212
0.456494
0.460988
0.460098
0.451
0.455529
0.456347
0.447117
0.456264
0.451663
8.98211e-05
0.000147517
8.11126e-05
3.39103e-05
6.90574e-05
4.45021e-05
0.00307819
0.00120845
5.06466e-05
4.44662e-05
0.00279262
0.00142737
0.000211461
0.00029694
0.000193001
0.00155408
0.000782104
0.000667935
0.5
0.5
0.5
0.5
0.5
0.5
0.5
0.5
0.5
0.5
0.499896
0.499889
0.499825
0.499846
0.499876
0.499886
0.49992
0.499936
0.499937
0.499919
0.499924
0.499818
0.499792
0.499836
0.499859
0.499918
0.499871
0.499858
0.499827
0.499815
0.499796
0.49988
5.07368e-05
2.95252e-05
0.000158167
6.40105e-05
3.49912e-05
2.04456e-05
9.16825e-05
0.000201221
0.000337402
5.00389e-05
5.7825e-05
5.97641e-05
0.000165828
0.000147632
0.000244422
0.000136655
0.000139765
5.10873e-05
0.5
0.5
0.5
0.5
0.5
0.5
0.5
0.5
0.5
0.5
0.5
0.5
0.5
0.5
0.5
0.5
0.5
0.5
0.5
0.49041
0.489736
0.494629
0.493361
0.472609
0.470814
0.458482
0.450846
0.446434
0.450155
0.478367
0.482294
0.490128
0.485248
0.444359
0.438114
0.453104
0.470284
0.5
0.5
0.5
0.5
0.5
0.5
0.5
0.5
0.5
0.5
0.5
0.5
0.5
0.5
0.5
0.5
0.5
0.5
0.5
0.5
0.5
0.5
0.5
0.5
0.5
0.5
0.5
0.5
0.5
0.5
0.5
0.5
0.5
0.5
0.5
0.5
0.5
0.5
0.5
0.5
0.5
0.5
0.5
0.5
0.5
0.5
0.5
0.5
0.5
0.5
0.5
0.5
0.5
0.5
0.5
0.5
0.5
0.5
0.5
0.5
0.5
0.5
0.5
0.5
0.5
0.5
0.5
0.5
0.5
0.5
0.5
0.5
0.5
0.5
0.5
0.5
0.5
0.5
0.5
0.5
0.494931
0.494988
0.49516
0.498321
0.497992
0.496934
0.4956
0.496845
0.496261
0.497526
0.498631
0.495505
0.497612
0.498116
0.497079
0.493776
0.493857
0.492544
0.495573
0.493006
0.494158
0.493966
0.492271
0.493688
0.491266
0.494756
0.490053
0.492579
0.498165
0.498813
0.498679
0.496817
0.494472
0.5
0.5
0.5
0.5
0.5
0.5
0.5
0.5
0.5
0.5
0.5
0.5
0.5
0.5
0.5
0.396443
0.400127
0.411722
0.417654
0.400991
0.400626
0.38117
0.375755
0.379864
0.5
0.5
0.5
0.5
0.5
0.5
0.5
0.5
0.5
0.5
0.5
0.5
0.5
0.5
0.5
0.5
0.5
0.5
0.5
0.5
0.5
0.5
0.5
0.5
0.5
0.5
0.5
0.5
0.5
0.5
0.5
0.5
0.5
0.5
0.5
0.5
0.5
0.5
0.5
0.5
0.5
0.5
0.5
0.5
0.5
0.5
0.5
0.5
0.5
0.5
0.5
0.5
0.5
0.5
0.5
0.5
0.5
0.5
0.5
0.5
0.5
0.5
0.5
0.5
0.5
0.5
0.5
0.5
0.493277
0.493199
0.49187
0.491993
0.497272
0.496067
0.496849
0.497147
0.492691
0.498039
0.496209
0.492816
0.49402
0.497309
0.497689
0.496263
0.496616
0.495562
0.497794
0.498123
0.498515
0.498686
0.498548
0.495862
0.498327
0.496979
0.499957
0.499954
0.49996
0.499956
0.499962
0.49996
0.499972
0.499774
0.499859
0.499788
0.499849
0.499815
0.499779
0.499882
0.499891
0.499961
0.499918
0.49983
0.5
0.5
0.5
0.5
0.5
0.5
0.5
0.5
0.5
0.5
0.5
0.5
0.5
0.5
0.5
0.5
0.5
0.5
0.5
0.5
0.5
0.5
0.5
0.5
0.5
0.5
0.440739
0.448827
0.440767
0.438178
0.43955
0.439128
0.427591
0.425677
0.425813
0.435791
0.431607
0.434859
0.432724
0.456168
0.466726
0.469661
0.465069
0.460395
0.452413
0.448423
0.45952
0.471705
0.466822
0.466977
0.471521
0.473245
0.470066
0.470618
0.481998
0.485891
0.486283
0.481618
0.485016
0.487971
0.490259
0.48932
0.491512
0.490051
0.489817
0.488146
0.481807
0.487456
0.49021
0.488166
0.493527
0.495854
0.486718
0.491346
0.493232
0.495781
0.489568
0.485735
0.491885
0.495257
0.493908
0.493076
0.491825
0.487494
0.0460656
0.0487574
0.0877006
0.100299
0.0667486
0.0966005
0.0606156
0.0521253
0.080152
0.0863819
0.0512015
0.5
0.5
0.5
0.5
0.5
0.5
0.5
0.5
0.5
0.5
0.5
0.5
0.5
0.499996
0.499999
0.499991
0.499982
0.499992
0.5
0.5
0.5
0.5
0.499999
0.5
0.5
0.5
0.5
0.5
0.5
0.5
0.5
0.5
0.5
0.5
0.5
0.5
0.5
0.5
0.5
0.5
0.5
0.5
0.5
0.5
0.5
0.5
0.5
0.5
0.5
0.5
0.5
0.5
0.5
0.5
0.5
0.5
0.5
0.5
0.5
0.5
0.5
0.5
0.5
0.5
0.5
0.5
0.5
0.5
0.5
0.5
0.5
0.5
0.5
0.5
0.5
0.5
0.5
0.5
0.499995
0.499998
0.499999
0.499997
0.499998
0.5
0.5
0.5
0.5
0.5
0.5
0.499981
0.49998
0.5
0.5
0.499995
0.499996
0.499982
0.499994
0.499994
0.499997
0.495887
0.496318
0.496237
0.496791
0.496844
0.496097
0.497559
0.497202
0.498368
0.497972
0.498372
0.498564
0.497413
0.49755
0.497827
0.498047
0.497283
0.498011
0.467314
0.421293
0.460243
0.452633
0.463213
0.432853
0.478459
0.478046
0.430183
0.47834
0.456081
0.417909
0.457335
0.45482
0.449519
0.455686
0.476408
0.455998
0.433297
0.477449
0.42238
0.452547
0.466182
0.475571
0.448406
0.41942
0.422861
0.215318
0.223254
0.237268
0.226797
0.247678
0.476089
0.467164
0.475599
0.488853
0.461246
0.492426
0.466534
0.359894
0.364004
0.433264
0.35948
0.358662
0.45312
0.396423
0.490752
0.0124362
0.0178687
0.0579268
0.0392949
0.0123099
0.0796283
0.0646974
0.00875271
0.00876214
0.0598601
0.0778762
0.0188351
0.0310946
0.0618849
0.0566465
0.0354693
0.0242817
0.0354571
0.5
0.5
0.5
0.5
0.499968
0.499964
0.49998
0.499977
0.499995
0.499997
0.499948
0.499931
0.499926
0.49993
0.499999
0.5
0.49999
0.499943
0.499944
0.499986
0.493396
0.492448
0.495715
0.496551
0.496541
0.49723
0.496243
0.495284
0.491876
0.494192
0.496695
0.496403
0.496367
0.496498
0.499795
0.499971
0.499717
0.499679
0.49999
0.499985
0.499661
0.499937
0.49999
0.499775
0.499696
0.49965
0.499995
0.499989
0.499995
0.499993
0.499994
0.499993
0.467541
0.44414
0.446228
0.397923
0.377419
0.425712
0.428459
0.483141
0.376519
0.420966
0.476426
0.471828
0.476423
0.470382
0.450366
0.487066
0.401152
0.425666
0.488563
0.472976
0.484972
0.492015
0.5
0.499999
0.499995
0.499997
0.5
0.5
0.5
0.5
0.5
0.5
0.499999
0.5
0.5
0.5
0.5
0.499999
0.5
0.5
0.5
0.5
0.5
0.5
0.5
0.5
0.5
0.5
0.5
0.5
0.5
0.5
0.5
0.5
0.5
0.5
0.5
0.161298
0.117037
0.152509
0.123032
0.16456
0.115032
0.133138
0.227965
0.499925
0.499914
0.499995
0.499984
0.499983
0.499985
0.499987
0.499953
0.499989
0.49999
0.49993
0.499976
0.499999
0.499999
0.499999
0.499999
0.499999
0.499999
0.499999
0.499999
0.499999
0.5
0.499999
0.5
0.499999
0.499999
0.499998
0.499999
0.5
0.499999
0.499977
0.499956
0.499884
0.499918
0.49996
0.499982
0.499937
0.499819
0.499875
0.499829
0.499851
0.499878
0.499945
0.499801
0.499847
0.499869
0.499806
0.499793
0.0850557
0.0794603
0.0829853
0.0932892
0.0889577
0.104924
0.104197
0.0936157
0.103481
0.10588
0.0932766
0.116454
0.119089
0.126728
0.0905197
0.104534
0.118396
0.116747
0.141739
0.133799
0.101337
0.127885
0.5
0.5
0.5
0.5
0.5
0.5
0.5
0.5
0.5
0.5
0.5
0.5
0.5
0.5
0.5
0.5
0.116612
0.152466
0.169849
0.151818
0.126542
0.13063
0.228373
0.230744
0.247322
0.246409
0.286569
0.275773
0.193401
0.231443
0.22504
0.270913
0.218038
0.201016
0.330453
0.234926
0.226288
0.282106
0.308411
0.312556
0.26183
0.247856
0.313045
0.300436
0.321349
0.325726
0.330958
0.347041
0.316984
0.335582
0.5
0.5
0.5
0.5
0.5
0.5
0.5
0.5
0.5
0.5
0.5
0.5
0.5
0.5
0.5
0.5
0.5
0.5
0.5
0.5
0.499851
0.499844
0.499289
0.499476
0.499986
0.499953
0.499995
0.49996
0.499736
0.499682
0.499996
0.49996
0.49996
0.499959
0.499996
0.499993
0.491776
0.491425
0.492986
0.491267
0.496116
0.491554
0.496977
0.491289
0.496798
0.498284
0.497013
0.498069
0.236273
0.226127
0.235541
0.214388
0.221417
0.225974
0.221722
0.241068
0.204714
0.207629
0.209762
0.204998
0.226836
0.226504
0.194853
0.195392
0.214925
0.498912
0.497903
0.492559
0.49536
0.495801
0.496525
0.497047
0.499264
0.498026
0.499066
0.498721
0.498305
0.496542
0.494013
0.494414
0.498119
0.49696
0.496122
0.499395
0.49938
0.499725
0.499829
0.49927
0.499416
0.499666
0.499685
0.499399
0.499981
0.499971
0.499929
0.499968
0.499977
0.499968
0.49996
0.499962
0.499904
0.499737
0.499715
0.499998
0.499998
0.5
0.5
0.499999
0.499999
0.499999
0.499999
0.499999
0.499998
0.5
0.5
0.5
0.5
0.5
0.5
0.5
0.5
0.5
0.5
0.5
0.5
0.5
0.5
0.5
0.5
0.5
0.5
0.5
0.5
0.5
0.5
0.5
0.5
0.5
0.5
0.5
0.5
0.5
0.5
0.0819334
0.0832424
0.0937663
0.091246
0.0758376
0.0844905
0.0635924
0.0770817
0.0756693
0.0953838
0.110937
0.097967
0.0727149
0.0864764
0.097124
0.5
0.5
0.5
0.5
0.5
0.5
0.5
0.5
0.5
0.5
0.5
0.5
0.5
0.5
0.5
0.5
0.5
0.0118429
0.0091266
0.0136388
0.0122256
0.0511473
0.0430557
0.0214687
0.0230945
0.0517908
0.0633215
0.0107455
0.0395308
0.0469845
0.0360809
0.048627
0.041675
0.0403333
0.0499307
0.06536
0.0717627
0.0806255
0.0535132
0.301305
0.288953
0.240005
0.262733
0.268007
0.245162
0.306932
0.3099
0.295293
0.302224
0.315593
0.294848
0.240142
0.256251
0.247457
0.478628
0.482699
0.479383
0.476
0.478755
0.470818
0.468836
0.473936
0.474084
0.471078
0.464689
0.475814
0.472329
0.475901
0.466259
0.470312
0.339647
0.335101
0.40695
0.379022
0.331425
0.296617
0.296717
0.335073
0.359707
0.374605
0.360941
0.332203
0.403114
0.38302
0.302329
0.383215
0.373664
0.365244
0.5
0.5
0.5
0.5
0.5
0.5
0.5
0.5
0.5
0.5
0.5
0.5
0.5
0.5
0.5
0.5
0.5
0.5
0.5
0.5
0.5
0.5
0.5
0.5
0.5
0.5
0.5
0.5
0.5
0.5
0.5
0.5
0.5
0.5
0.5
0.5
0.5
0.5
0.5
0.5
0.5
0.5
0.5
0.5
0.5
0.5
0.5
0.319577
0.333186
0.316774
0.33013
0.212223
0.228669
0.247604
0.21926
0.234645
0.316458
0.282789
0.303489
0.314896
0.222355
0.301566
0.281523
0.477218
0.478205
0.467431
0.470171
0.471835
0.459007
0.457077
0.44178
0.444484
0.462613
0.445892
0.443377
0.440885
0.5
0.5
0.5
0.5
0.5
0.5
0.5
0.5
0.5
0.5
0.5
0.5
0.5
0.499955
0.499996
0.488519
0.487783
0.494963
0.488273
0.499993
0.499997
0.499997
0.499996
0.49997
0.499831
0.499996
0.499998
0.499997
0.499996
0.497361
0.499998
0.499998
0.499997
0.5
0.5
0.5
0.5
0.5
0.5
0.5
0.5
0.5
0.5
0.5
0.5
0.5
0.5
0.150915
0.139421
0.156087
0.170476
0.128661
0.134476
0.188461
0.178722
0.162263
0.143713
0.179959
0.164977
0.162972
0.12741
0.140882
0.139302
0.148228
0.152744
0.0656875
0.0564101
0.061823
0.0630587
0.070219
0.0612457
0.0626277
0.0490732
0.049923
0.0595796
0.0658351
0.0674927
0.0663202
0.0530562
0.0506648
0.0362334
0.0276401
0.0298973
0.0302157
0.0543412
0.148422
0.152097
0.142216
0.180664
0.168449
0.366613
0.362283
0.369489
0.362317
0.389285
0.394857
0.387498
0.392485
0.346954
0.360562
0.356814
0.369321
0.383563
0.368099
0.487018
0.488717
0.486895
0.488333
0.485211
0.486608
0.491432
0.488179
0.490264
0.484363
0.483044
0.5
0.5
0.5
0.5
0.5
0.5
0.5
0.5
0.5
0.5
0.5
0.473358
0.466106
0.480256
0.483244
0.472274
0.466796
0.462334
0.48915
0.480237
0.469816
0.479543
0.463067
0.491276
0.490654
0.489561
0.5
0.5
0.5
0.5
0.5
0.5
0.5
0.5
0.5
0.5
0.5
0.5
0.5
0.5
0.5
0.5
0.5
0.5
0.5
0.5
0.5
0.496557
0.496471
0.497223
0.497074
0.497444
0.498091
0.499974
0.499957
0.49997
0.499987
0.499972
0.499966
0.499943
0.499361
0.499977
0.499736
0.49938
0.5
0.5
0.5
0.5
0.5
0.5
0.5
0.5
0.5
0.5
0.5
0.5
0.5
0.5
0.5
0.5
0.5
0.5
0.5
0.5
0.5
0.5
0.5
0.5
0.5
0.5
0.5
0.5
0.5
0.5
0.5
0.5
0.5
0.5
0.497274
0.498658
0.497684
0.498535
0.495334
0.494582
0.499501
0.494368
0.494848
0.499159
0.499292
0.494601
0.49431
0.499194
0.499977
0.499981
0.499979
0.499977
0.499985
0.49997
0.499984
0.499964
0.49997
0.499971
0.49998
0.0161725
0.0172418
0.0141202
0.0233369
0.0189371
0.01354
0.0133652
0.0152964
0.0125479
0.0150425
0.0146486
0.0173311
0.0189429
0.0205457
0.0214141
0.462365
0.466574
0.46426
0.464413
0.454628
0.459254
0.468886
0.458668
0.47267
0.474844
0.476504
0.46874
0.472819
0.466406
0.46444
0.460693
0.470127
0.466095
0.499379
0.499113
0.499456
0.49941
0.499562
0.498891
0.498352
0.498481
0.499196
0.499292
0.499075
0.499583
0.499471
0.498809
0.498858
0.498502
0.498285
0.498162
0.499232
0.499438
0.499203
0.5
0.5
0.5
0.5
0.5
0.5
0.5
0.5
0.5
0.5
0.5
0.5
0.5
0.5
0.5
0.5
0.5
0.5
0.5
0.5
0.5
0.5
0.5
0.5
0.5
0.5
0.5
0.5
0.5
0.5
0.5
0.5
0.5
0.5
0.5
0.5
0.5
0.5
0.5
0.5
0.0733204
0.037861
0.130847
0.116297
0.0345051
0.0340212
0.0541627
0.0974547
0.0842688
0.0937361
0.0780251
0.0931481
0.0138384
0.00615404
0.0317232
0.0203012
0.0673586
0.0186821
0.0190945
0.0263077
0.0275265
0.0135639
0.00991716
0.0157367
0.0116066
0.024401
0.01708
0.0186457
0.0101514
0.0190424
0.0136058
0.0111194
0.5
0.5
0.5
0.5
0.5
0.5
0.5
0.5
0.5
0.5
0.5
0.5
0.5
0.5
0.5
0.5
0.5
0.5
0.5
0.5
0.5
0.5
0.5
0.5
0.5
0.5
0.5
0.5
0.5
0.5
0.5
0.5
0.5
0.5
0.5
0.5
0.5
0.5
0.5
0.5
0.5
0.5
0.5
0.5
0.49731
0.495327
0.494392
0.493825
0.492644
0.495595
0.498322
0.49313
0.496252
0.49352
0.49445
0.49332
0.493749
0.493423
0.493869
0.486899
0.477369
0.476419
0.469201
0.46935
0.48282
0.484345
0.476576
0.492972
0.479704
0.481122
0.492313
0.5
0.5
0.5
0.5
0.5
0.5
0.5
0.5
0.5
0.5
0.5
0.5
0.5
0.5
0.5
0.5
0.5
0.5
0.5
0.5
0.5
0.5
0.5
0.5
0.5
0.5
0.5
0.5
0.5
0.5
0.5
0.220069
0.241727
0.252122
0.228053
0.220393
0.209236
0.20692
0.239672
0.19607
0.207519
0.5
0.5
0.5
0.5
0.5
0.5
0.5
0.5
0.5
0.5
0.5
0.5
0.5
0.5
0.5
0.5
0.5
0.5
0.5
0.5
0.5
0.5
0.5
0.5
0.5
0.5
0.5
0.5
0.5
0.5
0.5
0.5
0.5
0.5
0.5
0.5
0.5
0.5
0.5
0.5
0.5
0.5
0.5
0.5
0.5
0.5
0.5
0.5
0.5
0.5
0.5
0.5
0.5
0.5
0.5
0.5
0.5
0.5
0.5
0.5
0.5
0.5
0.5
0.5
0.5
0.5
0.5
0.5
0.5
0.5
0.5
0.5
0.5
0.5
0.5
0.5
0.5
0.5
0.5
0.5
0.5
0.5
0.499998
0.5
0.499998
0.499999
0.499998
0.5
0.5
0.499999
0.5
0.5
0.499999
0.499999
0.499999
0.5
0.5
0.5
0.5
0.5
0.499999
0.499999
0.5
0.499999
0.5
0.5
0.5
0.5
0.5
0.5
0.5
0.5
0.5
0.5
0.5
0.5
0.5
0.5
0.5
0.5
0.5
0.499992
0.499992
0.49997
0.499972
0.499979
0.499997
0.499995
0.499997
0.499972
0.499902
0.499888
0.49988
0.499884
0.499986
0.499937
0.499992
0.499944
0.499896
0.499988
0.499998
0.499998
0.499999
0.499998
0.499998
0.499998
0.499998
0.499998
0.499998
0.499997
0.499997
0.499996
0.499997
0.499998
0.499998
0.499995
0.499995
0.499996
0.499998
0.499996
0.5
0.5
0.5
0.5
0.5
0.5
0.5
0.5
0.5
0.5
0.5
0.5
0.5
0.5
0.5
0.5
0.5
0.5
0.5
0.5
0.5
0.5
0.5
0.5
0.5
0.5
0.5
0.5
0.5
0.5
0.5
0.5
0.5
0.5
0.5
0.5
0.5
0.5
0.5
0.5
0.5
0.5
0.5
0.5
0.5
0.5
0.5
0.5
0.5
0.5
0.5
0.5
0.5
0.499979
0.499981
0.499965
0.499972
0.499983
0.499987
0.499985
0.499973
0.499988
0.499978
0.499966
0.499977
0.49999
0.499985
0.499973
0.499992
0.499988
0.499985
0.5
0.5
0.5
0.5
0.5
0.5
0.5
0.5
0.5
0.5
0.5
0.5
0.5
0.5
0.5
0.5
0.5
0.5
0.5
0.5
0.5
0.5
0.5
0.5
0.5
0.412631
0.425055
0.462053
0.471476
0.447315
0.489699
0.489444
0.472517
0.493008
0.490101
0.479764
0.478867
0.473336
0.451205
0.41772
0.437747
0.490185
0.465604
0.489668
0.489483
0.489801
0.453355
0.464485
0.424758
0.477788
0.484696
0.4835
0.486407
0.487424
0.479168
0.480417
0.487935
0.486976
0.483881
0.474557
0.479474
0.482219
0.5
0.5
0.5
0.5
0.5
0.5
0.5
0.5
0.5
0.5
0.5
0.5
0.5
0.5
0.5
0.5
0.0385392
0.0393116
0.0334764
0.0447027
0.0433768
0.0527138
0.0514504
0.0311506
0.0283396
0.0394518
0.0466395
0.0279263
0.0411965
0.0353998
0.499506
0.49957
0.498746
0.499035
0.499704
0.499639
0.499571
0.499672
0.498838
0.499122
0.49976
0.4998
0.499751
0.49944
0.499765
0.499732
0.499764
0.498905
0.499217
0.499161
0.489373
0.490637
0.491963
0.489428
0.485004
0.48335
0.485713
0.488518
0.486832
0.489135
0.48944
0.487281
0.489931
0.486768
0.481154
0.483353
0.484171
0.484977
0.487335
0.488477
0.5
0.5
0.5
0.5
0.5
0.5
0.5
0.5
0.5
0.5
0.5
0.5
0.5
0.5
0.5
0.5
0.5
0.5
0.5
0.5
0.5
0.5
0.5
0.5
0.5
0.5
0.5
0.5
0.5
0.5
0.5
0.5
0.5
0.5
0.5
0.5
0.5
0.170781
0.110816
0.20994
0.067449
0.0553545
0.0982606
0.0469307
0.0723909
0.0616412
0.0675121
0.0391284
0.0534454
0.372069
0.364135
0.410623
0.411555
0.343738
0.32911
0.439217
0.443277
0.436768
0.4409
0.448035
0.420784
0.426757
0.422568
0.0237635
0.0131336
0.000158147
4.90882e-05
0.0204333
0.0216118
0.0597079
0.0389208
0.0777
0.0483283
0.0144074
0.0632998
0.0374793
0.0321096
0.0383275
0.0424852
0.0568187
0.0355967
3.63706e-06
5.03493e-06
1.71345e-06
1.5064e-06
9.49514e-07
4.0545e-07
8.61503e-07
4.51868e-05
2.30222e-05
2.92673e-07
9.30568e-07
1.67688e-07
1.65471e-06
2.22658e-07
9.37529e-07
4.1181e-07
6.31824e-06
4.91804e-07
0.49998
0.499975
0.499974
0.499984
0.499978
0.499976
0.499956
0.499966
0.499981
0.499962
0.499686
0.499568
0.499702
0.499617
0.499246
0.499114
0.499682
0.499696
0.499593
0.499601
0.499439
0.499355
0.499324
0.499567
0.499514
0.499535
0.499475
0.498061