/*--------------------------------*- C++ -*----------------------------------*\
  =========                 |
  \\      /  F ield         | OpenFOAM: The Open Source CFD Toolbox
   \\    /   O peration     | Website:  https://openfoam.org
    \\  /    A nd           | Version:  10
     \\/     M anipulation  |
\*---------------------------------------------------------------------------*/
FoamFile
{
    format      ascii;
    class       volScalarField;
    location    "7";
    object      eff_dif;
}
// * * * * * * * * * * * * * * * * * * * * * * * * * * * * * * * * * * * * * //

dimensions      [0 2 -1 0 0 0 0];

internalField   nonuniform List<scalar> 
75457
(
-0.0482433
-0.0436361
-0.0401924
-0.036384
-0.0309251
-0.033596
-0.0436646
-0.0441314
-0.0303888
-0.0240644
-0.0279393
-0.0313907
-0.0311915
-0.0280816
-0.00564459
-0.00624013
-0.00620248
-0.00622744
-0.00671605
-0.00622173
-0.00563342
-0.00645045
-0.00642688
-0.00692313
-0.00667775
-0.00715685
-0.00660891
-0.00113812
-0.00113515
-0.000645099
-0.000593095
-0.000472894
-0.000564939
-0.000849262
-0.000464866
-0.00130206
-0.00113837
-0.00115613
-0.00144412
-0.000600014
-0.0009611
-0.000557627
-0.000977967
-0.012036
-0.0117254
-0.0109732
-0.0111139
-0.0116389
-0.00646255
-0.00715028
-0.00753978
-0.00688559
-0.00694416
-0.00712854
-0.00760447
-0.0076536
-0.00732753
-0.00759143
-0.0068832
-0.0071854
-0.00697339
-0.00679224
0.0268603
0.0271557
0.0268891
0.027253
0.027526
0.0275389
0.0271601
0.0272023
0.0275147
0.0272893
0.0269632
0.0272812
0.0272642
0.0269066
0.0271498
-0.00997504
-0.0113662
-0.00938701
-0.0108552
-0.0131966
-0.00683934
-0.00723384
-0.00928336
-0.0103066
-0.0102757
-0.00979974
-0.00674042
-0.00779001
-0.00659087
-0.00686138
-0.00774868
-0.00696513
-0.00963893
-0.00982637
-0.00984843
-0.0101965
-0.00977972
-0.00961961
-0.0107964
-0.0100288
0.0282203
0.0281107
0.0283703
0.0283874
0.0282547
0.0281062
0.0280258
0.0284751
0.0284777
0.0280927
0.0281023
0.0190747
0.0197255
0.0221472
0.0217274
0.0191356
0.0206854
0.020721
0.0202039
0.0205522
0.022208
0.0219953
0.0225311
0.0230631
0.0218363
0.0212857
0.0201083
0.0224868
0.021503
0.010746
0.0107204
0.0101568
0.0110188
0.0106285
0.0121113
0.0118036
0.0116939
0.0116949
0.00501419
0.00456759
0.00511608
0.00466743
0.00411933
0.00461161
0.0046371
0.00371076
-0.00977332
-0.00981287
-0.0092231
-0.00941815
-0.00979772
-0.00945898
-0.00917751
-0.00870055
-0.00718258
-0.00723938
-0.00874207
-0.00846651
-0.00801927
-0.00870229
-0.0075979
0.0132642
0.0148277
0.0150622
0.014407
0.0148198
0.011173
0.0125383
0.0140679
0.0130958
0.0140277
0.0113785
0.0101037
0.0106766
-0.012071
-0.0125354
-0.0123985
-0.0126021
-0.0123602
-0.0125227
-0.0118517
-0.0125384
-0.012395
-0.0126151
-0.012596
-0.0124403
-0.0123577
-0.012492
-0.0111881
-0.00981476
-0.0123253
-0.00965859
-0.0100136
-0.0115661
0.00604949
0.00675068
0.00532373
0.00629875
0.00444945
0.00519839
0.00775491
0.00737748
0.00656207
0.00375881
0.00368084
-0.0104191
-0.0102651
-0.0106754
-0.0106283
-0.0105831
-0.0105096
-0.0103465
-0.0102405
-0.00984154
-0.0106609
-0.0104181
-0.0101922
-0.0105486
-0.0101624
0.00195189
0.0010908
0.00144616
-0.000160655
0.000356848
0.000970052
0.000708541
0.00200026
0.00158967
0.000800112
0.000149898
-0.000397056
0.00171617
0.000127754
-0.00993027
-0.0100071
-0.00969975
-0.00959802
-0.00990948
-0.00985109
-0.00998514
-0.00992946
-0.0101892
-0.0096174
-0.00991201
-0.00934049
-0.0099918
-0.0101574
-0.00985406
-0.00974956
-0.00993684
-0.0124174
-0.0121737
-0.0121709
-0.0120862
-0.0133919
-0.0119077
-0.0120063
-0.0113578
-0.0120074
-0.0126219
-0.0114895
-0.0123144
-0.0108597
-0.0108594
-0.0108242
-0.0109104
-0.0104981
-0.0104379
-0.0107392
-0.0105587
-0.0102759
-0.0105775
-0.0106309
-0.0103695
-0.0104673
-0.00732614
-0.00719249
-0.00738124
-0.00703519
-0.00705969
-0.00691173
-0.00676509
-0.00673225
-0.00674044
-0.00703075
-0.00732473
-0.00718459
-0.00665468
-0.00696221
-0.00697248
-0.000354309
-0.000382717
-0.000192535
-0.000326732
-0.000162178
-0.000255294
-0.000542219
-0.000484581
-0.000211538
0.000139125
0.00126247
0.000264974
0.000559113
0.000879558
0.00220585
0.000579376
0.000318091
0.00118323
5.3442e-05
0.000417869
-0.00019383
0.000279032
-0.00459144
-0.00519132
-0.00408623
-0.00427096
-0.00478604
-0.00513359
-0.00544358
-0.00459099
-0.00503098
-0.00552023
-0.00527428
-0.00905101
-0.00916639
-0.00932033
-0.0092913
-0.0092218
-0.00898846
-0.00901626
-0.00939422
-0.00961111
-0.00942368
-0.0096539
-0.00882138
-0.00910876
-0.00921699
-0.00938959
-0.0091706
-0.00928484
-0.0134177
-0.0117058
-0.0110402
-0.0138103
-0.017602
-0.0174442
-0.0168432
-0.0161309
-0.0156379
-0.0148406
-0.0168736
-0.00446283
-0.00500778
-0.00570167
-0.00556765
-0.00513346
-0.00530403
-0.00474262
-0.00565078
-0.00562983
-0.00510903
-0.00505144
-0.000251966
-0.000214014
-0.000415927
-0.000517377
-0.000194709
-0.000163352
-0.000474702
-0.000209364
-0.000530474
-0.000631206
-0.000598866
-0.000249559
-0.000489433
-0.000943561
-0.000854915
-0.00623539
-0.00500683
-0.00756804
-0.00631294
-0.00612209
-0.00953196
-0.00999504
-0.0095007
-0.00987617
-0.0099982
-0.00952263
-0.0104291
0.0459174
0.0506763
0.0393027
0.0419852
0.0447207
0.0466681
0.0464843
0.049291
0.0416435
0.0460972
0.0445249
0.0454609
0.0413204
0.045805
0.0403191
0.0416053
0.043536
0.0386874
0.0306067
0.0301478
0.0307869
0.0314562
0.0323743
0.0332701
0.0308685
0.0315461
0.0338684
0.0372073
0.0340073
0.0343469
0.0361355
0.0216941
0.018938
0.0165937
0.0182587
0.0225525
0.0192686
0.0178676
0.0193553
0.0189927
0.0170821
0.0242682
0.0242948
0.0177331
0.0192635
0.0166168
0.0226379
0.0248021
0.0249798
0.0211118
0.0210339
0.0216478
0.0228779
-0.0116209
-0.0121091
-0.0123051
-0.0122887
-0.0123911
-0.0117164
-0.0118068
-0.0119657
-0.012153
-0.0117167
-0.0121783
-0.011733
-0.0118763
-0.0118358
-0.0119505
-0.0119214
-0.0398484
-0.044535
-0.0268831
-0.0329992
-0.0250864
-0.0331489
-0.0310796
-0.0285542
-0.02457
-0.0307544
-0.0498924
-0.044034
-0.0292723
-0.0396675
-0.0260358
-0.0269209
-0.000679
-0.000830568
-0.000669706
0.000155486
0.000527337
0.00112477
-0.00102371
-0.00135267
0.00029062
0.000263343
0.00113002
0.000786445
0.000519026
0.000444349
0.000277421
-0.000364608
-0.00109065
-0.000288137
0.0298224
0.0341757
0.032796
0.0291178
0.0304592
0.0332834
0.036701
0.0357178
0.0309325
0.0368075
0.0385793
0.0367472
0.0329231
0.0296761
0.0304669
0.0312907
0.0229902
0.0223717
0.0228811
0.0226602
0.0218699
0.0235725
0.0241598
0.0235696
0.0229283
0.0239182
0.0233536
0.0225448
0.0233842
0.021826
0.0224907
0.0239991
0.02448
0.00946258
0.00928662
0.00899457
0.00932621
0.0093135
0.00940093
0.00957166
0.0095753
0.00954153
0.00942464
0.00911886
0.00919243
0.00960784
0.00931852
0.00949069
0.00874447
0.0087995
-0.00620765
-0.00734073
-0.00916777
-0.00795104
-0.00705867
-0.00705157
-0.00643582
-0.00648328
-0.00779074
-0.00749313
-0.008905
-0.00915432
-0.00771812
-0.00699409
-0.00913859
-0.00798342
-0.00772481
-0.00863408
-0.00544481
-0.0057034
-0.00528983
-0.00540239
-0.00489102
-0.00491297
-0.00501528
-0.00500004
-0.00442017
-0.00471372
-0.00490517
-0.00440388
-0.00423851
-0.00471111
-0.0085483
-0.00774406
-0.00887018
-0.00963405
-0.00976076
-0.00929872
-0.00891902
-0.00857821
-0.00845866
-0.0100276
-0.00974212
-0.00968104
-0.00880196
-0.00820595
-0.00862419
-0.00943343
-0.00946893
-0.00973906
0.0171755
0.0129338
0.0137612
0.0207217
0.0170318
0.0111175
0.0139398
0.0144326
0.0108477
0.0192462
0.0142214
0.0113927
-0.0107462
-0.0104995
-0.0100816
-0.0099833
-0.0103393
-0.0103524
-0.00862891
-0.00918727
-0.0103518
-0.0102575
-0.0102496
-0.00929405
-0.00930953
-0.0101224
-0.0101011
-0.00996864
-0.00621083
-0.00674245
-0.00565253
-0.00606909
-0.00729892
-0.00740405
-0.00705296
-0.00582716
-0.00575615
-0.00573599
-0.00559883
-0.00691961
-0.00737602
-0.00589118
-0.00549483
-0.00663189
0.0019373
0.001194
0.000529655
0.0037263
0.00463463
0.00218719
0.0028706
-0.00032391
0.00127648
0.0019565
0.00356493
0.00246586
0.00349744
0.00429777
0.00403569
0.000960076
0.00106663
0.00233449
0.000470431
-0.00375445
-0.00285681
-0.0034727
-0.0054708
-0.00452288
-0.00331532
-0.00537357
-0.00496341
-0.00367715
-0.00409516
-0.00395452
-0.00524069
-0.00391913
-0.00361669
-0.00132708
-0.00118974
-0.00180518
-0.00204789
-0.00167503
-0.00201027
-0.00187918
-0.001659
-0.00208361
-0.0016698
-0.00194563
-0.00183833
-0.00239543
-0.00167591
-0.00178807
-0.00163826
-0.0014882
-0.00204507
-0.00644966
-0.00703642
-0.00613914
-0.00482774
-0.00529916
-0.00892369
-0.00641418
-0.00612078
-0.00612752
-0.00719742
-0.00864244
-0.0108554
-0.0112372
-0.0116682
-0.0110834
-0.011466
-0.0126164
-0.0112475
-0.0126733
-0.00950198
-0.00955781
-0.0128958
-0.0140128
-0.0130758
-0.0125079
-0.0118373
-0.0138212
-0.0114328
-0.0123558
-0.0122853
-0.012651
-0.0110884
-0.0121881
-0.0122701
-0.011977
-0.0121882
-0.0118851
-0.0121065
-0.0121306
-0.0119903
-0.0117866
-0.0118544
-0.0121033
-0.0118772
-0.0120118
-0.0118566
-0.0119982
-0.0119438
-0.0119328
-0.00910022
-0.00945449
-0.0109011
-0.0114322
-0.00975522
-0.010176
-0.0111913
-0.0114461
-0.0100541
-0.0110348
-0.0101914
-0.00471727
-0.00495851
-0.00373451
-0.00291304
-0.00351547
-0.00285961
-0.00316564
-0.0021666
-0.00330135
-0.00313386
-0.00338784
-0.00304997
-0.00279162
-0.00400265
-0.0036984
-0.00361586
-0.00405556
-0.00389389
-0.00322856
-0.00380935
-0.00353119
-0.00405336
-0.00402511
-0.00341691
-0.0034148
-0.00371115
-0.00303268
-0.00362258
-0.00334043
-0.00302361
-0.00342264
-0.00298203
-0.00338781
-0.00358161
-0.00305015
-0.00853473
-0.0086803
-0.00863607
-0.00851769
-0.00807134
-0.00757211
-0.00859152
-0.00721298
-0.00809722
-0.00675516
-0.00737756
-0.00784486
-0.00829823
-0.00747412
-0.00756221
-0.00894226
-0.00793686
-0.00705731
-0.00703307
-0.00684577
-0.00825662
-0.00839517
-0.00875216
-0.00873113
-0.00779185
-0.00794964
-0.00904432
-0.00874642
-0.0084137
-0.00744986
-0.00775471
-0.00770259
-0.00739273
-0.00797158
-0.00796924
-0.00837202
-0.00721668
-0.00746483
-0.00805817
-0.00839284
-0.00733058
-0.00759637
-0.00820579
-0.00932938
-0.00788983
-0.00866613
-0.0082156
-0.00966479
-0.00755502
-0.00741458
-0.00747314
-0.00812364
-0.00915599
-0.00880782
-0.00910901
-0.00788334
-0.00759235
-0.00835602
-0.00821328
-0.00820696
-0.00779479
-0.00916418
-0.00837299
-0.00920494
-0.0101983
-0.00961896
-0.00927478
-0.0087792
-0.00879004
-0.0097535
-0.00980728
-0.0105229
-0.00931897
0.0179269
0.0186149
0.019562
0.0183327
0.0191762
0.0180663
0.0191297
0.0178656
0.0183844
0.0194417
-0.0116577
-0.0115226
-0.0110804
-0.0111574
-0.0119014
-0.0117201
-0.0112484
-0.0113654
-0.0118304
-0.011026
-0.011486
-0.0111701
-0.0111973
-0.0117719
-0.011217
-0.0115064
-0.0116796
-0.0124508
-0.011801
-0.0127631
-0.0125032
-0.0123599
-0.0129697
-0.0117438
-0.0125309
-0.0117704
-0.0114908
-0.0124091
-0.0127795
-0.0115945
-0.0126346
-0.0125377
-0.0123515
-0.0119754
-0.0129333
-0.0123516
-0.0123479
0.00890453
0.00931991
0.0100556
0.00942819
0.00908486
0.0103018
0.00677793
0.00832426
0.00855207
0.00827921
0.00758362
0.00972761
0.00913626
0.0097244
0.0088322
0.00840774
-0.0166768
-0.0177393
-0.0165007
-0.0160369
-0.0162372
-0.0138642
-0.0153739
-0.0164473
-0.0162083
-0.0165727
-0.0129189
-0.0141628
-0.0160017
-0.013629
-0.0145603
-0.0126279
-0.0122506
-0.0122981
-0.0133461
-0.0133977
-0.0139673
-0.0123202
-0.0118239
-0.0117049
-0.0126789
0.00813831
0.00708773
0.00675473
0.0068735
0.00680627
0.00539272
0.00508281
0.00451514
0.0046142
0.00513503
0.00521007
0.00431594
0.00589901
0.00509983
0.00676104
0.0068795
0.00503204
0.00609265
0.00566881
-0.0110361
-0.0110011
-0.0118937
-0.0113259
-0.0126971
-0.0112202
-0.0107467
-0.0115636
-0.0115985
-0.0111036
-0.0110003
-0.0118507
-0.0120195
-0.0125292
-0.0117547
-0.0114154
-0.0111672
-0.0121537
-0.0117464
-0.0079315
-0.00897269
-0.00875849
-0.0083771
-0.00827882
-0.00904672
-0.00810216
-0.00763095
-0.00896145
-0.00916216
-0.00970834
-0.00904895
-0.00953778
-0.00934447
-0.00983282
-0.0097779
0.0166292
0.0171621
0.0163557
0.0162138
0.0172693
0.0182385
0.018312
0.0172359
0.0171158
0.0179746
0.018192
0.017213
0.0183141
0.0187928
0.019553
0.0189332
-0.014279
-0.0166959
-0.013243
-0.0138678
-0.0157582
-0.0181319
-0.0101968
-0.0110909
-0.0129608
-0.0150627
-0.0126942
-0.0136137
-0.0153017
-0.0179434
-0.0162516
-0.0117352
-0.0152719
-0.0132154
-0.0153041
-0.0179538
0.0547792
0.0487792
0.0445503
0.0442229
0.0532604
0.0545222
0.048015
0.0528298
0.0470225
0.0490373
0.0466139
0.04714
0.0439115
0.043775
0.0495045
0.0177897
0.0164289
0.0211064
0.0226834
0.0205197
0.017535
0.0229662
0.0195235
0.0219487
0.0252378
0.0241219
0.0253559
0.0271588
0.0248929
-0.0168446
-0.0175838
-0.0171454
-0.0178868
-0.0159904
-0.0162696
-0.0146673
-0.013541
-0.0158669
-0.0158052
-0.0140172
-0.0135522
-0.0162779
-0.0145766
-0.0142687
-0.014873
-0.00731359
-0.00695828
-0.00708984
-0.00721914
-0.00687885
-0.00729032
-0.00699933
-0.0073693
-0.00754704
-0.00673586
-0.00673052
-0.00673533
-0.00742257
-0.00728647
-0.00674821
-0.00707446
-0.00698103
-0.00741448
-0.00715774
-0.0125068
-0.0124557
-0.0121576
-0.0129912
-0.0130442
-0.0129939
-0.0121691
-0.0130456
-0.0128642
-0.0114417
-0.0120652
-0.0120161
-0.0122524
-0.0120142
-0.0132322
-0.0129906
-0.0116588
-0.0121006
-0.0119412
-0.0119536
-0.0116677
-0.0117266
-0.0121947
-0.0116286
-0.0117524
0.0263969
0.0255144
0.0255535
0.0260613
0.0262505
0.0257983
0.0255643
0.0256253
0.026348
0.0261146
0.0261948
0.0259152
0.0260753
0.0258298
0.0261789
0.0262353
0.0262109
0.0259838
0.0256181
0.0263153
-0.00924207
-0.0100398
-0.00918362
-0.00968969
-0.00917985
-0.00886546
-0.0090202
-0.00978204
-0.00880196
-0.00910991
-0.00931699
-0.00949486
-0.00616189
-0.00621335
-0.00567189
-0.00547164
-0.0052441
-0.00620853
-0.00620908
-0.00637634
-0.00602164
-0.00548087
-0.00542178
-0.00573406
-0.00589223
-0.00539759
-0.00561082
-0.00562844
-0.00578223
-0.00563651
-0.00366962
-0.00347356
-0.00376784
-0.00345289
-0.00361282
-0.00404688
-0.00411844
-0.00428677
-0.00434383
-0.00352763
-0.00401526
-0.00365607
-0.00438686
-0.00424072
-0.00384639
-0.00363901
-0.00440393
-0.00404502
-0.00357815
-0.00276093
-0.00290589
-0.00310104
-0.00220813
-0.00272596
-0.0024266
-0.00225879
-0.00332001
-0.00278337
-0.00334328
-0.00325613
-0.00237034
-0.00232278
-0.00264221
-0.00343609
-0.0034178
-0.00738631
-0.00706158
-0.00734588
-0.00732671
-0.00675092
-0.00662062
-0.00679473
-0.00774582
-0.00766965
-0.0118681
-0.0116532
-0.0116832
-0.0118801
-0.0120451
-0.0120346
-0.0118404
-0.0121099
-0.0117955
-0.0117324
-0.0120255
-0.011828
-0.00575285
-0.00551439
-0.00576603
-0.00573664
-0.00573188
-0.00591184
-0.00587167
-0.00600884
-0.00615714
-0.00589355
-0.00644651
-0.00628168
-0.00627806
-0.00639847
-0.00622524
-0.00634946
0.0264127
0.0265682
0.0263829
0.0260966
0.0256935
0.0256765
0.0252847
0.0252328
0.0255414
0.026115
-0.00908075
-0.00884989
-0.00910847
-0.00886468
-0.00919499
-0.00906684
-0.00933999
-0.00929878
-0.00944804
-0.00945486
-0.00922598
-0.00903547
-0.00926743
-0.00961942
-0.00954673
-0.00932233
-0.00927137
-0.00922147
-0.00702422
-0.00740338
-0.00693986
-0.00708885
-0.00703614
-0.00697696
-0.00724422
-0.00697732
-0.00719356
-0.0077101
-0.00742866
-0.00749125
-0.00722999
-0.00745197
-0.00692392
-0.00710015
-0.00732337
-0.00707899
0.00599591
0.00537583
0.00482491
0.00577084
0.00390258
0.00339976
0.0063524
0.00584613
0.00457954
0.00601977
0.00503879
0.00415363
0.004867
0.00489196
0.0268287
0.0267323
0.0265901
0.026424
0.0268838
0.0264497
0.0262659
0.0263016
0.0266212
0.0264268
0.0266297
0.0267564
0.0262982
0.0262707
0.026159
0.0261995
0.0265921
0.0263832
0.0265443
0.0262993
0.0402376
0.0387412
0.0321196
0.0352931
0.0245667
0.028912
0.0143816
0.0300105
0.030322
0.0276533
0.0333663
0.0233022
0.0347942
0.0398176
0.0358294
0.0432771
0.0251478
0.0363517
0.0318108
-0.0153895
-0.0165997
-0.0120505
-0.0112059
-0.0162897
-0.0193332
-0.0193162
-0.0221447
-0.011997
-0.0120247
-0.0250705
-0.0215933
-0.0148451
-0.0184266
-0.0211466
-0.0152499
-0.0158691
-0.0226296
-0.0184982
-0.0192836
-0.00144457
-0.00211981
-0.00185516
-0.00217643
-0.00246012
-0.00177944
-0.00310337
-0.00222029
-0.00246435
-0.00240356
-0.00208729
-0.00216059
-0.00274616
-0.00194515
-0.00305677
-0.00296255
-0.00289447
-0.0028016
-0.00212144
-0.0125195
-0.0136573
-0.0159673
-0.0162545
-0.0156986
-0.0148935
-0.0127126
-0.0136734
-0.0155131
-0.0115004
-0.0132868
-0.0132611
-0.0133302
-0.0146756
-0.0148814
-0.0146939
0.0290525
0.0290037
0.0288695
0.0289461
0.0292135
0.0292292
0.0291085
0.029134
0.0289459
0.0288152
0.0293216
0.029098
0.029265
0.0292629
0.0288965
0.0288132
0.0289756
0.029141
0.0292724
0.0288774
-0.00270999
-0.0028502
-0.00228984
-0.00187488
-0.00476905
-0.00485072
-0.00526402
-0.00611047
-0.00405607
-0.00268348
-0.00232187
-0.00476932
-0.00510719
-0.00562806
-0.00634664
-0.00623963
-0.0039563
-0.00574168
-0.00550255
-0.00445606
0.028984
0.0288376
0.0289192
0.0289616
0.028951
0.028988
0.0289138
0.0290355
0.0291045
0.0291239
0.0291957
0.0288878
0.029049
0.0290434
0.0291413
0.0291266
0.0290005
-0.00645287
-0.00635884
-0.006546
-0.00682203
-0.00671337
-0.00638818
-0.00613473
-0.00656698
-0.00668792
-0.0069237
-0.00622188
-0.00577442
0.026869
0.0266925
0.0272511
0.027259
0.0270036
0.0269587
0.0265921
0.0268056
0.0270576
0.0272101
0.0272535
0.0268831
0.0266868
0.0268075
0.0266191
0.0268096
0.0266012
0.0268787
0.0269448
0.0266015
0.0268506
0.0201381
0.0196966
0.0197878
0.0202118
0.020277
0.0194391
0.0198425
0.0215031
0.0216877
0.0214825
0.0207579
0.0204135
0.0200198
0.0199348
0.0200009
0.0206683
0.0205878
0.0205563
0.00657225
0.00683044
0.00690257
0.00649164
0.00675456
0.00744497
0.00708479
0.00711685
0.00687929
0.00801522
0.00783693
0.00808482
0.00791939
0.00700314
0.00673547
0.0475693
0.0425071
0.0367267
0.038169
0.0445029
0.0424626
0.0537943
0.0393147
0.0462183
0.0411403
0.0534458
0.0531717
0.0489142
0.0422889
-0.00527136
-0.00503652
-0.00534425
-0.00570098
-0.00578287
-0.00581189
-0.00533328
-0.00550488
-0.00541001
-0.00530565
-0.0057887
-0.00576386
-0.00547816
-0.00494819
-0.00505045
-0.00535638
0.0231324
0.0211011
0.0227059
0.020931
0.0206128
0.0209871
0.0213228
0.0213798
0.0222094
0.0226195
0.0250301
0.0245262
0.0235797
0.0258211
0.0264069
0.0238588
0.0248965
0.0281225
0.0280703
0.0276567
0.0277648
0.0278598
0.0279285
0.0281466
0.0281899
0.0276145
0.0277398
0.0280973
0.0281159
0.0280764
0.0279409
0.0279009
0.0280678
0.027862
-0.0212004
-0.018704
-0.0184137
-0.022926
-0.0181844
-0.0235186
-0.0303831
-0.0177699
-0.0210751
-0.0211422
-0.0201981
-0.0222187
-0.0241029
-0.0189719
-0.0173745
-0.0170705
-0.0133352
-0.0150783
0.0147181
0.014389
0.0160317
0.0157133
0.0149578
0.013679
0.014055
0.0156319
0.0161588
0.0157527
0.0154823
0.0158111
0.0140747
0.0138279
0.0131998
0.015062
0.0138888
0.0144981
0.0134869
0.0150093
0.0143072
0.0140709
-0.00743506
-0.00769136
-0.00745926
-0.00747943
-0.00635539
-0.00645065
-0.00492064
-0.00506556
-0.00660337
-0.00716961
-0.00709299
-0.00655359
-0.00520603
-0.00547722
-0.00510023
-0.00521173
-0.00519975
-0.00578645
-0.00500148
-0.0051199
-0.00562244
-0.00540596
-0.00517143
-0.00554391
-0.00582854
-0.00564404
-0.00572838
-0.00489167
-0.00491547
-0.00480061
-0.00500515
-0.0049776
-0.00575568
-0.00573959
-0.00567598
-0.00532775
-0.00490303
-0.00541223
-0.0066261
-0.0065907
-0.00666011
-0.00678778
-0.0070231
-0.00711863
-0.00658639
-0.00700958
-0.00646051
-0.00672177
-0.00638771
-0.00697729
-0.00607099
-0.00639328
-0.00617257
-0.00705053
-0.00658685
-0.00622154
-0.00700287
-0.00645718
-0.00625928
-0.00562199
-0.00781008
-0.00531566
-0.00315169
-0.00817644
-0.00809097
-0.000514776
-0.00191312
0.000980377
-0.00412933
-0.000637614
-0.00434236
-0.00328842
-0.00656278
-0.00615402
-0.00311905
-0.00241592
0.00211404
-0.00107605
0.00124957
0.00321396
0.00169841
0.00104212
0.00149864
0.00204421
0.00362564
0.00349302
0.00257195
0.00185608
0.00107645
0.00142117
0.00150587
0.00121337
0.00222405
0.00207112
0.00317052
0.00197415
0.00124473
0.0018639
-0.0101
-0.00966487
-0.00986215
-0.00991743
-0.0100463
-0.0100833
-0.0102945
-0.0105865
-0.0100994
-0.0106675
-0.0101851
-0.00999382
-0.0100389
-0.00996521
-0.0100375
-0.00998686
-0.0100349
-0.00685681
-0.0069946
-0.00825684
-0.00783941
-0.0076177
-0.00786706
-0.00802792
-0.00775831
-0.00721664
-0.0079094
-0.0074174
-0.00793433
-0.00761263
-0.00770453
-0.0044951
-0.00511095
-0.00525548
-0.00561584
-0.00504194
-0.00542292
-0.00446825
-0.00551672
-0.00564949
-0.00596428
-0.00603397
-0.00437558
-0.00537232
-0.00562766
-0.00553123
-0.00472239
-0.00554103
-9.26566e-05
-0.000281318
-0.000273651
-2.35899e-05
-0.000159498
-0.000249542
-0.000229029
-0.000141571
-0.000198167
-0.00025505
-0.000459325
-0.000601602
-0.000801523
-0.000597082
-0.000193187
-0.00036524
-0.000658177
-0.00065253
-0.000602752
-0.000688118
-0.000335658
-0.000170787
-0.000699438
-9.55518e-05
-0.000343382
-0.000293811
-0.000507864
-0.000633694
-0.000310216
-0.000521572
-0.000402219
-0.000129168
-0.000155898
-0.00041734
-0.000615756
-0.000295589
-0.000326856
-0.000628695
-0.000178941
-0.000354677
-0.0162075
-0.0171655
-0.0198349
-0.020113
-0.0196979
-0.0203775
-0.0177266
-0.0184673
-0.0187077
-0.0156062
-0.0170197
-0.0177834
-0.0203248
-0.0190539
-0.0201912
-0.0190335
-0.0183016
-0.00208606
-0.00207911
-0.00247269
-0.00120177
-0.00183435
-0.00269577
-0.00296162
-0.00113222
-0.00141661
-0.00236483
-0.0107338
-0.0106148
-0.0109528
-0.0112161
-0.0103423
-0.0102761
-0.0108092
-0.0111473
-0.0111489
-0.0109755
-0.0106257
-0.0103414
-0.0103678
-0.0104292
-0.0103217
-0.010707
-0.0104909
-0.0106571
-0.0093267
-0.00931069
-0.00941312
-0.00907838
-0.00949907
-0.0091587
-0.00923549
-0.00909708
-0.00880869
-0.00889901
-0.00951152
-0.00961024
-0.00928905
-0.000725156
-0.000457343
-0.000886503
-0.000587104
-0.000930521
-0.00120399
-0.000946609
-0.000353117
-0.000228585
-0.000675426
-0.00108344
-0.000986055
-0.000352905
-0.000352264
-0.0101228
-0.0100958
-0.0104015
-0.0102952
-0.0100525
-0.0101743
-0.0103942
-0.010167
-0.0101463
-0.0102793
-0.0102174
-0.0104916
-0.0102912
-0.0100757
-0.0107081
-0.0253112
-0.0238559
-0.0232001
-0.0233512
-0.0215521
-0.0212721
-0.0268517
-0.0257356
-0.0252367
-0.0263298
-0.0270281
-0.0262904
-0.0231569
-0.0216924
-0.0229902
-0.024219
-0.023673
-0.0255413
0.0281092
0.0281044
0.0283503
0.027714
0.0278245
0.0277832
0.027891
0.0277162
0.028026
0.0280063
-0.010299
-0.0103441
-0.0103592
-0.0105695
-0.010262
-0.0105506
-0.0102326
-0.0103061
-0.0101175
-0.0102029
-0.0102345
-0.0105071
-0.0105701
-0.0103531
-0.0105883
-0.0102161
-0.0103519
-0.0103813
-0.0101917
-0.0103459
-0.0104065
-0.0103591
-0.00498521
-0.00517982
-0.00518173
-0.00524326
-0.00477833
-0.00440167
-0.00509434
-0.00510928
-0.00458105
-0.00462261
-0.0042083
-0.00416283
-0.00473311
-0.00457407
-0.0042239
-0.00413274
-0.00439467
-0.00470088
0.0297077
0.0306854
0.0319211
0.0306153
0.0292467
0.0316925
0.0298449
0.0307888
0.0271232
0.0290449
0.0305963
0.0277924
0.0280976
0.0268371
0.0255856
0.0287071
0.0265461
0.0254011
0.026466
0.0305637
0.0283282
0.0274429
0.0247715
0.0300853
0.0309584
0.0323705
0.0318569
0.0361083
0.0352674
0.0326598
0.03514
0.0285586
0.0275758
0.0360739
0.0369889
0.0337906
0.0361871
0.0288053
0.0289229
0.028971
0.0287778
0.028896
0.0287816
0.0289666
0.0288964
0.0287368
0.0288857
0.0286754
0.0287074
0.0289477
0.0288747
0.0288838
0.0289566
0.02838
0.0241127
0.0236686
0.0259462
0.0270932
0.0289838
0.0270712
0.0271821
0.0234246
0.0227225
0.0272766
0.0252358
0.0267317
0.0239064
0.0259315
0.0238012
0.0235268
0.024645
0.0251993
0.0242476
0.0249259
0.0259479
0.0257566
0.0251193
0.0243531
0.0259986
0.0263563
0.0257981
0.021131
0.0207631
0.0229188
0.0243742
0.0125705
0.0116203
0.0215331
0.021474
0.0122554
0.0144986
0.0169412
0.0170797
0.0185623
0.0160553
0.0138316
0.0116595
0.0270059
0.0261792
0.0265361
0.0270539
0.0262536
0.0275716
0.0271667
0.0263686
0.0263761
0.0291886
0.0287637
0.0284293
0.0278822
0.0267855
0.0279191
0.0273536
0.0283851
0.0277747
0.0271383
0.0286755
0.0076042
0.00931453
0.00414541
0.00126275
0.00253718
0.00517803
0.0123608
0.00426286
0.00814264
0.00809366
0.00187761
0.00686209
0.00754946
0.00451346
0.00746688
0.0140186
0.0141288
0.0125129
0.0105331
0.00887662
0.0179264
0.0150622
0.0149883
0.0121525
0.0162022
0.0163021
0.0162533
0.0135103
0.0121434
0.0132427
0.013394
0.014092
0.0144941
0.027913
0.027972
0.0277467
0.0276425
0.0283576
0.0283387
0.027842
0.0276787
0.0285249
0.02852
0.0279126
0.0282153
0.0284999
0.0284595
0.0283412
-0.0124549
-0.0122278
-0.0129023
-0.012895
-0.0134472
-0.0125645
-0.0125861
-0.0142268
-0.013845
0.0307803
0.0299079
0.0289176
0.0288806
0.0295896
0.0290233
0.0312305
0.028675
0.0324556
0.0310366
0.0288361
0.0306865
0.0313039
0.0316244
0.0321142
0.0279404
0.0282456
0.0300081
0.0321288
0.0308042
0.0284089
0.0292751
0.00241731
0.00312
0.00259775
0.000511686
0.00156979
0.00259057
-0.000447554
0.000882498
0.00115979
-0.000862917
0.000272497
-0.00191937
-0.000909845
-0.00195335
-0.0024147
-0.0017529
-0.000546771
0.00108802
-0.00274202
-4.94058e-05
0.0267489
0.0251282
0.0297321
0.0253962
0.027219
0.0338543
0.0311794
0.0273145
0.0311066
0.0264229
0.0288002
0.0345965
0.0324213
0.0332043
0.036678
0.0300474
0.0295171
0.0277393
0.0322193
0.0261526
0.0293388
0.0271506
0.0308048
0.0353162
0.0362245
0.0342061
-0.00947696
-0.0103567
-0.0097269
-0.00940636
-0.00975972
-0.0102081
-0.0100105
-0.00968513
-0.0106306
-0.00956844
-0.00971291
-0.0101345
-0.00944956
-0.00941816
-0.00930953
-0.00951387
-0.00953396
-0.0101714
-0.00984745
-0.00928667
-0.00937485
-0.00934554
-0.00924767
-0.00951198
-0.00933109
-0.00952995
-0.00793031
-0.00764192
-0.00833519
-0.00877887
-0.00785849
-0.00805839
-0.00782323
-0.00687648
-0.00868835
-0.00615547
-0.0084815
-0.0074459
-0.00693742
-0.00756862
-0.00839931
-0.00845737
-0.00799643
-0.00766224
0.00939354
0.00891806
0.0056006
0.00740047
0.0061856
0.00431615
0.0010062
0.00543072
0.00570318
0.00338188
-0.00127872
0.00224124
0.00372453
0.0240363
0.0248349
0.0251738
0.0238291
0.0255048
0.0252747
0.0256862
0.0248455
0.0249579
0.0239873
0.0241279
0.0260269
0.0254219
-0.0136157
-0.0135285
-0.0143792
-0.013885
-0.013932
-0.0145396
-0.015945
-0.0153087
-0.0169585
-0.0146503
-0.0149151
-0.0144359
-0.016003
-0.0123879
-0.0109069
-0.0107085
-0.0111708
-0.0114316
-0.0119619
-0.0119055
-0.0121876
-0.0108
-0.0108364
-0.0114371
-0.0108606
-0.0104203
-0.0108671
-0.0108529
-0.00981947
-0.00950786
-0.00965591
-0.00967971
-0.00964263
-0.00958816
-0.00946734
-0.00950385
-0.00926704
-0.00956173
-0.00949988
-0.00973527
-0.00959337
-0.00964192
-0.00928699
-0.00936901
-0.0108085
-0.0104671
-0.0105915
-0.0104321
-0.0104697
-0.0103425
-0.0104313
-0.0107663
-0.0105073
-0.0103465
-0.0105382
-0.0105123
-0.0105275
-0.0110431
-0.00600698
-0.00777961
-0.00813998
-0.00602033
-0.00752478
-0.00809059
-0.0084202
-0.00577286
-0.00584728
-0.00669864
-0.00654951
0.0215282
0.0230527
0.0221619
0.0233271
0.022582
0.023431
0.0225572
0.0218199
0.0230385
0.0221312
0.0234096
0.0213098
0.0228483
0.0309733
0.033873
0.0363395
0.0446158
0.0425058
0.03098
0.0482435
0.0473849
0.0344872
0.0400236
0.0325744
0.0346808
0.0432947
0.0472374
0.0499611
0.0380346
0.0398646
0.0368298
0.0464479
0.0444396
0.042565
0.0396365
0.0319576
0.0320922
0.0318473
0.030638
0.0304494
0.0291524
0.029624
0.0298864
0.0293809
0.0282745
0.0284017
0.0186226
0.0179513
0.0177413
0.0172935
0.0197102
0.01921
0.0176275
0.0189774
0.0182279
0.017356
0.0165478
0.0167638
0.0184131
0.0198598
0.0200464
0.0173866
0.0168316
0.018983
0.0162913
0.0303327
0.0306166
0.0305143
0.0305135
0.0312523
0.0310779
0.0308694
0.0307153
0.0307095
0.0311148
0.0318608
0.0315852
0.0320132
-0.0128638
-0.00852483
-0.00575063
-0.00964398
-0.00787982
-0.0031794
-0.00330228
-0.00329692
-0.00209276
-0.00625525
-0.00394261
-0.0127958
-0.0161524
-0.00662182
-0.00352968
-0.0101228
-0.00732747
-0.0161495
-0.0108024
-0.016743
-0.00971689
-0.00951443
-0.00934119
-0.00954273
-0.00957475
-0.00920462
-0.00938826
-0.00947936
-0.00981964
-0.00949384
-0.00941444
-0.00981708
-0.00958455
-0.00942024
-0.00949008
-0.00947168
-0.00942288
-0.00909611
-0.00950414
-0.0103538
-0.0114107
-0.00984379
-0.00951441
-0.00945452
-0.0110067
-0.0100895
-0.0102386
-0.00948299
-0.010035
-0.0111564
-0.0128888
-0.0103965
-0.0101233
-0.00923394
-0.00756192
-0.00933708
-0.0087548
-0.00786376
-0.00937963
-0.0106966
-0.00862615
-0.0071626
-0.00820867
-0.00733957
-0.00890124
-0.00783162
-0.00362944
-0.00413536
-0.00440846
-0.00431124
-0.00469843
-0.0114244
-0.0131692
-0.0123177
-0.0136514
-0.017961
-0.0117511
-0.0153368
-0.0172659
-0.016941
-0.0221744
-0.0231155
-0.0191599
-0.0195791
-0.0198773
-0.0156559
-0.00223161
-0.00255137
-0.00278494
-0.00377711
-0.00302598
-0.00288716
-0.00327493
-0.00243522
-0.00320338
-0.00163401
-0.00164405
-0.00288717
-0.0030729
-0.00276203
-0.000667662
-0.00181046
-0.00265215
-0.00192783
0.0121819
0.00995645
0.00505737
0.0126922
-0.00229532
-0.0133276
0.0122501
0.00175573
0.0115105
0.00524609
0.00599884
-0.0261386
-0.020423
-0.0397231
-0.00118999
-0.00184912
-0.00427206
-0.016436
-0.00777423
-0.00112317
-0.0198692
-0.0194285
-0.0195333
-0.0180097
-0.0183923
-0.0172897
-0.0171367
-0.0169382
-0.018341
-0.0185203
-0.0165803
-0.017214
-0.0177162
-0.0168192
-0.01319
-0.0115888
-0.0123472
-0.0140111
-0.00988879
-0.0106083
-0.011905
-0.0139619
-0.0116649
-0.0113077
-0.0139554
-0.0128059
-0.00914285
-0.00990768
-0.00903853
-0.00962159
-0.00966424
-0.00996822
-0.00745622
-0.00846673
-0.00742358
-0.0101063
-0.0135754
-0.00903826
-0.0155256
-0.0138496
-0.0156734
-0.0152228
-0.00507137
-0.00553895
-0.00547868
-0.0074989
-0.00966112
-0.0103643
-0.0118425
-0.0122423
-0.00649186
-0.00950404
-0.00689168
-0.00702099
-0.00585659
-0.00757884
-0.00768369
-0.00709547
-0.00423924
-0.00424787
-0.00536377
-0.00237988
-0.00244617
-0.00556025
-0.00767142
-0.0046258
-0.00353973
-0.00232702
-0.00181861
-0.00610312
-0.0036047
-0.00394958
-0.00541914
-0.00411941
0.0110508
0.011653
0.00874226
0.00908139
0.0117781
0.0098647
0.00941273
0.010067
0.0106006
0.0100141
0.00898099
0.00953487
0.0096633
0.00873045
0.0115557
-0.0141997
-0.0106328
-0.0119023
-0.0135056
-0.0150778
-0.0137147
-0.0106929
-0.0141588
-0.00789965
-0.00752474