/*--------------------------------*- C++ -*----------------------------------*\
  =========                 |
  \\      /  F ield         | OpenFOAM: The Open Source CFD Toolbox
   \\    /   O peration     | Website:  https://openfoam.org
    \\  /    A nd           | Version:  10
     \\/     M anipulation  |
\*---------------------------------------------------------------------------*/
FoamFile
{
    format      ascii;
    class       volScalarField;
    location    "7";
    object      k;
}
// * * * * * * * * * * * * * * * * * * * * * * * * * * * * * * * * * * * * * //

dimensions      [0 2 -2 0 0 0 0];

internalField   nonuniform List<scalar> 
75457
(
2.04632
2.32258
1.4244
0.781523
1.43277
1.53327
1.80358
1.59148
0.470221
0.452896
0.397059
1.25525
1.12363
0.484744
0.0496553
0.0425331
0.0143732
0.0349035
0.0383799
0.0150298
0.0238033
0.0243661
0.0537065
0.0439735
0.0351651
0.0589804
0.0526403
0.0304973
0.0384539
0.027429
0.023976
0.0443947
0.0511529
0.0293804
0.0248053
0.0334078
0.0299111
0.0603105
0.0523784
0.0400761
0.0448153
0.0370783
0.0297123
0.0497187
0.0863351
0.0176855
0.0088496
0.0434562
0.594262
0.188131
0.378527
0.531607
1.22996
0.372756
0.218419
0.238099
0.960661
0.926966
0.793059
1.30584
1.07482
0.662452
0.455105
0.323645
0.0557594
0.331168
0.090575
0.377213
0.486515
0.909808
0.464903
0.98789
0.364232
0.0296267
0.454866
0.129575
0.136998
2.59945
2.03746
1.07741
2.01208
1.74036
2.24022
1.36333
0.474122
0.458865
0.597722
0.751093
2.33628
1.87748
1.05505
0.836349
1.43671
0.700828
0.902762
0.330209
0.357691
0.3927
1.7165
0.832594
0.793149
1.23249
0.113922
0.0273015
0.0401085
0.0557998
0.187136
0.0404874
1.07741
0.311028
0.375153
0.779459
0.837794
0.710354
0.0642311
0.833459
1.28373
0.457188
0.448319
1.53929
0.0189463
0.0722885
0.0766603
0.185705
0.443905
0.270241
0.821066
0.440226
0.844283
0.0928138
0.168995
0.9006
0.272068
0.585262
0.518268
0.86595
0.359986
0.741969
0.708433
1.30023
0.134142
0.263678
0.457607
0.150939
0.187653
0.649042
0.58496
0.522504
1.22473
0.694801
1.8145
1.10031
0.280354
0.197805
0.611977
0.962568
0.642966
1.267
0.410377
0.866471
1.25704
0.31258
0.993041
0.0052252
0.00544847
0.00562029
0.00547685
0.0055823
0.00503144
0.00499848
0.00518803
0.00555037
0.00510977
0.00532679
0.00517794
0.00504683
0.681919
0.725824
0.874783
1.12151
0.965404
1.16191
0.696606
0.905874
1.4215
0.526291
0.716096
0.851899
1.34434
2.79503
0.912232
0.48881
0.79728
0.902998
0.602577
1.42004
0.107876
0.247803
0.188478
0.143966
0.0946101
0.580148
0.726399
0.750016
0.483028
0.528444
0.906412
1.50472
1.46063
1.472
1.18042
1.18305
1.53975
1.69859
1.05355
1.01631
1.76013
1.13207
1.86727
1.83397
1.65887
0.917103
0.94351
1.28196
0.884517
0.95384
1.82781
0.895507
0.832015
0.976684
0.233611
0.218538
1.25825
0.664558
0.883545
0.755694
1.12567
0.40139
0.429514
0.45873
0.474794
1.02086
1.19487
0.888423
1.21596
0.946999
0.718258
0.864327
1.13178
1.57344
1.07178
1.22805
0.674279
1.11162
0.699513
0.800199
0.424129
0.235138
0.33675
0.0538696
0.12946
0.152396
0.400098
0.367504
0.889808
1.53729
1.07301
2.02094
1.39427
1.36102
1.56938
1.30307
0.788404
0.817881
0.863764
0.742267
0.944122
0.885608
1.17763
0.848561
1.05921
1.02582
0.963125
0.912699
0.772268
0.844412
0.681009
0.281267
0.3195
0.497433
0.415347
0.472859
0.689336
0.954679
1.05932
1.27785
1.09647
0.914536
0.94248
1.12209
0.948313
0.493646
1.17036
0.209558
0.208115
0.270014
0.122902
0.241817
0.194753
0.670467
0.174068
0.185072
0.274953
0.168888
0.984725
1.10113
1.03058
0.975622
0.618127
1.21039
0.568249
0.396156
0.423389
0.560794
0.622808
0.499051
0.433766
0.450558
0.96373
1.07399
0.588838
0.555986
1.08208
1.25036
0.529238
0.551668
1.15088
1.08105
1.82141
1.0643
1.04672
1.65234
0.552124
0.627659
0.641703
0.6437
0.840453
0.680802
1.00286
0.799496
0.643602
0.483071
0.720494
0.538577
1.08179
1.18443
1.31165
2.28604
0.870582
0.740317
1.39079
1.47882
1.47747
1.40448
0.353792
0.341467
0.408019
0.430322
0.64038
0.524848
1.03213
0.540682
0.575772
0.82319
1.41457
1.00414
0.919767
0.86349
0.93414
0.382385
0.463422
0.485239
0.901852
0.885614
1.2362
1.1865
0.871053
1.0729
0.344921
0.30792
0.774688
0.00404327
0.00425886
0.00376277
0.00374626
0.00420633
0.00432103
0.00398662
0.00428671
0.00410946
0.00427438
0.00378927
0.0037551
0.00380834
0.00389998
0.00377966
0.00384506
0.00365689
0.00371848
0.00391164
0.00393626
0.00381747
0.00358388
0.0035445
0.00352798
0.0039037
0.00384108
0.00374367
0.00354448
0.00348876
0.00369467
0.00374335
0.00388131
0.00390617
0.00368561
0.00370512
0.00382084
0.00378069
0.00373956
0.00378384
0.00387431
0.00386988
0.00373982
0.0038169
0.00375184
0.00375829
0.00371626
0.00378276
0.00387931
0.00401158
0.00373254
0.00386232
0.0038623
0.00380527
0.183721
0.0730017
0.0769497
0.0709331
0.0744111
0.151739
0.0643054
0.0747844
0.0535861
0.179692
0.0544902
0.0526132
0.0535947
0.0580786
0.044188
0.156533
1.43306
0.952765
1.10386
0.940175
0.37956
0.404824
0.879898
0.916634
0.363749
0.358144
2.31281
1.51191
1.54871
1.02735
0.43078
0.0604488
0.0129444
0.0188162
0.0775708
0.0757459
0.0472089
0.0182244
0.0175533
0.0176274
0.0222035
0.0137385
0.0442971
0.0734102
0.0714694
0.0810713
0.247957
0.0905216
0.0561088
0.0550494
0.00399558
0.00405278
0.00406591
0.00399223
0.00392403
0.00413475
0.0041628
0.00379744
0.00392869
0.00410899
0.00411046
0.0044053
0.00413595
0.00396888
0.00396663
0.00400409
0.00491154
0.00469649
0.00497758
0.00472253
0.00453197
0.00503177
0.00542401
0.00511151
0.00496214
0.00511847
0.00504645
0.00488393
0.00511876
0.00487139
0.00496288
0.00538975
0.00540744
0.00445173
0.00477014
0.00449834
0.00475237
0.00468324
0.0045392
0.00339874
0.00702872
0.00428906
0.00462173
0.00400841
0.00447213
0.00429644
0.00448519
0.00420012
0.00430119
0.00346023
0.202467
0.136124
0.18231
0.2449
0.128448
0.220939
0.179588
0.208529
0.157181
0.138793
0.166147
0.247956
0.234084
0.172953
0.188123
0.195645
0.247613
0.272515
0.0453734
0.0601128
0.0692604
0.091488
0.0230558
0.10773
0.0442293
0.0551219
0.0614223
0.133544
0.0761453
0.0692699
0.07243
0.0318513
0.0535376
0.0518446
0.0634332
0.0486088
0.0713254
0.0681303
0.0697701
0.0589499
0.0528607
0.0655499
0.0730047
0.0749218
0.0596454
0.0434682
0.0446964
0.0763701
0.0494415
0.0698697
0.00391728
0.00392555
0.00394703
0.00444966
0.00475136
0.00393918
0.00379366
0.00434315
0.00417659
0.00424355
0.0036417
0.00467549
0.200479
0.126252
0.265994
0.104389
0.235192
0.179641
0.207525
0.210513
0.23533
0.0690062
0.0498174
0.059983
0.0616229
0.0516169
0.0580473
0.0601907
0.00857196
0.0311613
0.00734255
0.0270468
0.0716361
0.0544737
0.0847314
0.0510444
0.0477975
0.0291057
0.0184136
0.00906375
0.0711005
0.0154554
0.0201287
0.0255264
0.0057053
0.00147462
0.0389862
0.00824016
0.00199454
0.0554053
0.0416019
0.0108637
0.000292417
0.00280952
0.000706498
0.00187899
0.0033798
0.00291156
0.00171403
0.0550012
0.0491485
0.0499553
0.0146405
0.0902443
0.0723101
0.0472406
0.131772
0.0702644
0.101718
0.0816749
0.0429841
0.0635486
0.0362615
0.109524
0.0844638
0.0654989
0.0654458
0.0929643
0.0672579
0.0606996
0.0846738
0.0593027
0.0736346
0.0505195
0.0482103
0.0519587
0.0463924
0.0435761
0.0643203
0.0558681
0.0523799
0.0609491
0.0388834
0.0382302
0.0552788
0.215146
0.434481
0.471739
0.0291765
0.0775214
0.338631
0.18635
0.0577757
0.0625293
0.556202
0.366966
0.710762
0.608202
0.916601
0.927061
0.849
0.971134
0.776422
0.880356
0.585122
0.547495
0.943205
1.00481
1.02284
1.04354
1.03534
1.02781
0.901232
0.687064
0.730382
0.674515
0.735609
0.0352884
0.0268727
0.0861939
0.0601177
0.0697691
0.0297277
0.0527319
0.0516885
0.0487818
0.161561
0.203989
0.264118
0.0256724
0.206215
0.36957
0.15319
0.262616
0.0117726
0.0638163
0.134716
0.336064
0.0690935
0.0845914
0.411185
0.302748
0.0794109
0.318795
0.110158
0.383777
0.329872
0.337785
0.661009
0.36077
0.89795
1.07054
0.810437
0.6831
0.507958
1.0521
0.847301
0.837069
0.0571237
0.067754
0.0181512
0.023864
0.0169641
0.0163069
0.0283829
0.037568
0.117436
0.0454796
0.0755051
0.0819335
0.0256824
0.0194334
0.0856922
0.044359
0.0777873
0.075023
0.0603864
0.109278
0.125536
0.0489911
0.0491394
0.0177185
0.0847091
0.0244641
0.0164885
0.0998614
0.0889937
0.0187547
0.0545809
0.0713611
0.0495601
0.0470755
0.101364
0.0270876
0.0385812
0.147796
0.0758444
0.0248242
0.00751637
0.0139705
0.107144
0.19063
0.0634291
0.0724287
0.122959
0.168338
0.0666575
0.0682661
0.091608
0.0542562
0.0538984
0.10748
0.119639
0.164459
0.0581885
0.0596292
0.0874038
0.167973
0.0748704
0.0651578
0.096725
0.0633061
0.180118
0.214359
0.0227618
0.0384705
0.0495536
0.0659523
0.0332912
0.0393051
0.0629211
0.155506
0.223761
0.176068
0.0543653
0.0644916
0.0367791
0.114635
0.0843625
0.0201412
0.0183134
0.0177828
0.0187174
0.020024
0.0164733
0.0136881
0.0153236
0.0140382
0.0181038
0.0189486
0.0119973
0.0180281
0.0187014
0.00378965
0.00376747
0.00391362
0.00385217
0.00391997
0.00386166
0.00403271
0.0038994
0.00417271
0.00429059
0.129534
0.0865192
0.140512
0.189195
0.0559666
0.0495345
0.176502
0.257847
0.0714609
0.152501
0.143773
0.144998
0.181809
0.0474306
0.173225
0.142437
0.0294941
0.561261
0.623078
0.570987
0.938558
0.840885
0.668296
0.942866
0.864233
0.886693
0.931309
0.522788
0.526118
0.681342
0.599413
0.777626
0.834026
0.776513
0.528856
0.610204
0.620209
0.00226366
0.00366783
0.00370407
0.00211191
0.00496642
0.0295291
0.0341637
0.00558893
0.00378566
0.00342516
0.0323505
0.0404638
0.00200481
0.0183533
0.0247036
0.0470945
1.42449
1.5046
1.79976
1.82301
1.33749
1.70006
1.485
2.0843
2.4651
2.16203
1.5377
1.65103
2.02657
0.0618701
0.0861011
0.0740575
0.0564414
0.0465175
0.0509259
0.0804019
0.0679529
0.0546042
0.0572196
0.0362887
0.0535648
0.0424653
0.118007
0.0962693
0.0554871
0.123421
0.111143
0.0513056
0.0464664
0.0442011
0.0545988
0.00190163
0.00014092
0.0028837
0.00151041
0.00145778
0.0266846
0.106404
0.00424892
0.0383168
0.158602
0.168378
0.105961
0.10131
0.121146
0.0273873
0.090559
0.124744
0.0986443
0.0350188
0.0349154
0.0867678
0.0170905
0.0490514
0.0383665
0.0311773
0.0319566
0.0499798
0.0256483
0.332652
0.407416
0.575644
0.424113
0.36164
0.425156
0.334155
0.325229
0.523361
0.440699
0.569903
0.493274
0.720526
0.664116
0.631234
0.549554
0.0693016
0.160973
0.130496
0.0733186
0.0111182
0.0193283
0.0256957
0.0113526
0.0109469
0.0103303
0.10374
0.0653953
0.0182679
0.0301524
0.027826
0.0222997
1.16364
1.64265
1.16171
1.4953
1.28657
1.78617
0.534763
0.694765
0.488107
0.522881
0.537827
0.814129
1.41915
1.73214
1.2074
0.824568
1.01948
1.02486
0.8357
1.69042
0.0135873
0.00924607
0.00734567
0.00650961
0.00778048
0.00587039
0.00657933
0.00671943
0.00665722
0.0147983
0.0166068
0.00875196
0.00865586
0.00587728
0.0157496
0.0562137
0.0705325
0.114366
0.16005
0.219946
0.214398
0.262515
0.0982566
0.355977
0.477321
0.418962
0.19996
0.535052
0.556342
0.0238763
0.0416286
0.0165958
0.0226962
0.0202136
0.029397
0.0111725
0.00678018
0.0315694
0.00729334
0.017783
0.00634014
0.00956042
0.00581903
0.00522783
0.0059255
0.0741099
0.0804667
0.0634868
0.0632864
0.223116
0.230032
0.0421409
0.12078
0.116438
0.0517291
0.220817
0.175969
0.26627
0.165064
0.176704
0.238641
0.245042
0.284208
0.286685
0.0132608
0.0516291
0.0196155
0.02958
0.0149326
0.127606
0.0351086
0.0645882
0.0781123
0.0571898
0.0133053
0.0185571
0.0200468
0.0166006
0.0859443
0.0696267
0.0463849
0.120645
0.0811999
0.0987884
0.0366123
0.0574224
0.124636
0.0771252
0.0589445
0.0158299
0.0118656
0.0105034
0.0779979
0.00442933
0.00648579
0.0253273
0.0228477
0.0126332
0.0109261
0.0259862
0.0288388
0.0133457
0.0249194
0.00903697
0.00731733
0.00732561
0.00806461
0.0307298
0.00851259
0.0230737
0.0207304
0.0165567
0.0311159
0.0243265
0.0248679
0.0617515
0.0230491
0.0650702
0.0717389
0.0558811
0.0395477
0.535067
1.13019
1.63282
0.88028
1.26558
0.649248
0.786711
1.19525
1.38095
0.478726
0.931927
1.09384
1.58038
0.634145
1.08355
0.312466
0.804329
0.456582
0.396604
0.71301
0.843905
0.650161
0.387702
0.351973
0.34619
1.18839
1.19987
1.19491
1.33734
0.341948
0.35359
0.337998
0.309372
0.33398
0.610508
0.631927
0.552791
0.0436296
0.0876813
0.0244693
0.0446067
0.0292635
0.0193282
0.0114195
0.028903
0.0173069
0.0152656
0.0114903
0.0118189
0.0125653
0.0138199
0.0159157
0.0102161
0.329036
0.344782
0.370031
0.401985
0.639193
0.529674
0.364262
0.445658
0.491541
0.847357
0.789054
0.90941
0.199144
1.17756
1.34938
0.968988
1.12961
0.283256
0.0681481
0.928415
0.0600838
0.972667
1.24907
0.403382
0.759617
0.300395
1.11877
1.43093
1.06088
0.133459
0.352221
0.442764
1.57865
0.36422
0.739715
0.818688
1.33731
0.387426
0.580017
0.567558
1.08427
0.31814
0.481321
1.56327
0.359647
0.724364
0.390861
0.910932
1.3588
0.737931
0.440732
1.07894
1.19017
0.364504
0.22721
0.848783
0.228504
0.813031
1.34497
0.806947
0.217939
0.259527
1.23819
0.819478
0.266318
0.236756
0.327556
0.253298
0.109246
0.17131
0.135929
0.267285
0.280797
0.0721656
0.0864638
0.0910834
0.216226
0.32676
0.137174
0.168616
0.0868999
0.223837
0.241865
0.0831352
0.0786548
0.0442014
0.0364926
0.0387007
0.0449844
0.120394
0.068188
0.0445854
0.0684187
0.0437502
0.414273
0.696729
0.287516
0.0108531
0.0104587
0.010067
0.0103735
0.0111665
0.00936946
0.0325593
0.0390527
0.0608894
0.0319587
0.00162022
0.0128534
0.0140456
0.00848185
0.0274859
0.0264812
0.0782428
0.0303388
0.0065945
0.00739491
0.589219
0.641973
0.695489
0.549313
0.786735
0.793148
0.862603
0.747561
0.48045
0.591656
0.651253
0.622412
0.632329
0.756922
0.529148
0.592002
0.522897
0.486447
0.490731
0.0302602
0.0127563
0.0195195
0.0147968
0.344164
0.504426
0.158975
0.258836
0.0368163
0.0196189
0.264574
0.0746825
0.0239587
0.165084
0.445952
0.154065
0.0916462
0.228272
0.102719
0.21792
0.0668239
0.0618523
0.11438
0.0747778
0.10817
0.791876
1.01058
0.47358
0.520356
0.376293
0.231999
0.160233
0.235341
0.193558
0.587074
0.221773
0.106477
0.0690732
0.182886
0.608504
0.580975
0.558255
0.501588
0.563451
0.495868
0.689341
0.67257
0.647252
0.706133
0.692323
0.514473
0.544519
0.64753
0.520079
0.507554
0.0235303
0.0222432
0.0247541
0.0299202
0.0303871
0.0269065
0.0503802
0.0418809
0.0448334
0.0276892
0.0314426
0.0300559
0.0454799
0.0351458
0.0358003
0.034514
0.0417257
0.0391448
0.0394235
0.0304048
0.725761
1.00074
0.598827
1.00684
0.459027
0.521812
0.185459
0.324854
1.11407
0.652936
1.12702
0.935361
0.242765
0.23305
1.14377
0.836126
1.12112
0.731134
1.40973
0.482213
0.0219404
0.0445968
0.0551564
0.0549589
0.0372827
0.0281691
0.0250002
0.039119
0.0490226
0.0417538
0.0425902
0.0380345
0.0658528
0.0316482
0.0840438
0.076568
0.0784575
0.494576
1.05468
0.959136
1.82389
0.542723
0.616131
0.785064
0.843258
2.75024
0.801133
0.492242
1.53091
0.0119947
0.0104995
0.00902694
0.00414672
0.0114678
0.00836051
0.00771461
0.00527308
0.00495358
0.0136159
0.00884046
0.00484196
0.0569845
0.000274796
0.0196594
0.00104036
0.031
0.0975897
0.00110798
0.0562885
0.0804963
0.164668
0.149068
0.00643833
0.0112078
0.248278
0.176183
0.263312
0.00948604
0.0217182
0.0353008
0.00791222
0.0171244
0.0204524
0.00760307
0.0717093
0.0208659
0.0302156
0.00990129
0.054483
0.149499
0.0463205
0.0643588
0.0958496
0.361237
0.00955127
0.014564
0.264129
0.472256
0.0384924
0.0180222
0.0968743
0.241797
0.0636326
0.23711
0.243029
0.200229
0.106166
0.147623
0.215244
0.152194
0.154143
0.0773043
0.0180769
0.123968
0.0664828
0.0616636
0.0213039
0.0173925
0.0275211
0.0338
0.0591936
0.00238641
0.00466341
0.00320883
0.00324857
0.0794654
0.0787775
0.00978296
0.00125748
0.00630655
0.0428605
0.0749561
0.0730507
0.0113783
0.00332717
0.00520767
0.133923
0.0766634
0.511251
0.358444
0.124957
0.485307
0.327798
0.217655
0.104009
0.00230592
0.00149761
0.0160837
0.0537467
0.00484422
0.0209728
0.0213609
0.0074419
0.0268952
0.0188785
0.0204805
0.0246578
0.0248934
0.0106139
0.0110009
0.0227812
0.0274602
0.0257772
0.0207273
0.0176765
0.0261309
0.0200784
0.108824
0.0614249
0.0617843
0.128704
0.0567625
0.423366
1.01171
0.0762168
0.282595
0.356986
0.157737
0.319574
0.309036
0.0971285
0.547187
0.803588
1.27345
0.954384
0.500829
0.388253
0.228581
0.06687
0.0831362
0.381777
0.347516
0.15347
0.148466
0.146165
0.0805907
0.10055
0.156281
0.0941063
0.0817886
0.12429
0.0718531
0.045967
0.128705
0.19553
0.126123
0.123655
0.198988
0.211104
0.218911
0.214334
0.227828
0.201805
0.17833
0.176463
0.270293
0.195812
0.208528
0.212417
0.289205
0.192019
0.175611
0.184429
0.47507
0.365455
0.405791
0.507401
0.488687
0.412507
0.913586
0.736192
0.564884
0.785205
1.15536
0.716545
0.42889
0.803166
0.439783
0.750838
0.783795
1.48006
1.55199
0.858156
1.40054
1.65103
1.08097
1.53268
1.06356
0.725636
0.498974
0.358764
1.39055
0.987526
1.00783
0.197402
0.336925
1.19717
0.2732
0.985971
0.872748
0.253683
0.226999
0.194417
0.820594
0.831392
0.843954
0.841437
0.806437
0.843329
0.869892
0.787701
0.861734
0.833706
0.832896
0.874847
0.853582
0.778125
0.810807
0.696074
0.912315
0.852085
0.872387
0.724312
0.812725
0.871566
0.819551
0.636017
0.206275
0.234755
0.265076
0.734078
0.538839
0.961205
0.647731
0.568164
0.211866
0.431966
0.754784
0.536395
1.13934
1.071
0.431608
0.461885
0.508417
1.48105
0.894315
0.942882
0.641579
0.397552
0.965429
1.07215
0.458949
0.341654
0.253903
0.938868
0.802762
1.02653
1.31248
0.597596
0.883901
0.888191
0.260712
0.666192
0.744803
0.290709
0.283022
0.999291
0.798837
0.813628
1.14617
0.814141
0.858341
0.312251
0.288363
0.663932
0.319432
0.419953
0.423955
0.356082
0.43051
0.400909
0.367097
0.341293
0.464988
0.327716
0.30946
0.331555
0.313894
0.296868
0.270044
0.285401
0.287122
0.281117
0.0471518
0.0434722
0.067281
0.0625338
0.0589231
0.0768563
0.0413075
0.0360459
0.0552721
0.0537408
0.048478
0.1071
0.0611253
0.0667713
0.0654369
0.0924643
0.0538037
0.0806614
0.0693278
0.115133
0.0999208
0.0866385
0.066051
0.0504073
0.0441461
0.0458622
0.0220188
0.00933146
0.00625715
0.0236954
0.0328084
0.00541733
0.00314295
0.0196797
0.0183188
0.00150252
0.0174049
0.00796751
0.0135066
0.0142872
0.892234
0.831916
0.84099
0.970004
0.795262
0.898418
1.12993
0.777012
0.909524
0.918688
0.687735
0.742161
0.829914
0.793122
1.58705
0.940445
1.07681
0.122677
0.0213177
0.136167
0.672194
0.541121
0.0273471
0.0900451
0.0806083
0.0119315
0.260966
0.363386
0.630446
0.134496
0.130604
0.441508
0.648192
0.0801508
0.0846293
0.0918203
0.0911053
0.123401
0.171717
0.0921323
0.89243
0.71611
0.138238
0.118588
0.258583
0.476803
0.762959
0.510406
0.60112
0.617129
0.761354
1.20778
1.60382
1.02294
1.46891
0.318465
0.626191
0.28703
0.0366104
0.0319497
0.0367152
0.0298689
0.0127458
0.0283002
0.0184299
0.0175161
0.0272253
0.0317077
0.0303253
0.026736
0.0209085
0.028194
0.128058
0.16164
0.0944974
0.103198
0.229468
0.0889988
0.100528
0.215585
0.334016
0.249276
0.394863
0.154154
0.149383
0.240568
0.0733924
0.703901
0.6224
0.893662
1.05147
0.901207
1.04234
1.19599
1.16342
0.80143
0.645911
1.04636
1.03301
1.1244
1.28957
1.16125
1.16583
1.18213
1.08644
0.0294428
0.0410809
0.0249019
0.0242986
0.0273579
0.023912
0.0282352
0.0222452
0.0220731
0.0174711
0.923699
0.909553
0.660023
1.11925
0.231935
0.192752
0.143441
0.288891
0.525821
0.645035
0.895503
0.925823
0.763068
0.173116
0.191948
0.0677367
0.588552
0.814931
0.178763
0.185033
0.156199
0.187021
0.24107
0.22408
0.324035
0.23985
0.306803
0.624523
0.28293
0.315692
0.211201
0.641342
0.465081
0.685569
0.303044
0.238755
0.202812
0.251408
0.290874
0.245383
0.00695863
0.00685156
0.00651708
0.00699219
0.00662652
0.00633012
0.00670311
0.00656997
0.00614336
0.00644926
0.00627028
0.00652559
0.00674233
0.00654509
0.00627851
0.00601457
0.00612339
0.00591
0.00625831
0.909087
0.98848
0.717616
0.85536
0.73731
0.753027
0.886114
0.688088
0.73188
0.653313
0.904293
0.968901
0.985848
0.876192
0.767053
0.751902
0.870852
0.911245
0.0277402
0.0289383
0.0242714
0.0220786
0.037003
0.0310491
0.0358722
0.0302535
0.0280216
0.0471933
0.0354761
0.0368828
0.0370083
0.0444468
0.0597985
0.0571449
0.00401361
0.00411571
0.004105
0.00403053
0.00406322
0.00400928
0.00399058
0.00394618
0.00397521
0.00396454
0.00397382
0.00392721
0.00398347
0.00460203
0.00456583
0.00468652
0.00467157
0.00460494
0.00447954
0.00496216
0.00471655
0.0050884
0.00476333
0.00488427
0.0048678
0.00479974
0.00495252
0.00464392
0.00426591
0.00484391
0.00404246
0.00447122
0.00463207
0.00168899
0.00407234
0.0042813
0.00444418
0.00440668
0.00454608
0.00370644
0.00430575
0.00425841
0.00428028
0.00361705
0.00882785
0.00882504
0.00860583
0.00800539
0.00813411
0.00846528
0.00787174
0.00791439
0.00823611
0.00830525
0.00998223
0.00981121
0.00840039
0.00802966
0.00826237
0.00832329
0.00976231
0.00867574
0.00888339
0.00868375
0.672592
0.652212
0.607919
0.420611
0.546293
0.499756
0.666978
0.574767
0.666063
0.327554
0.349856
0.608303
0.492266
0.573297
0.657135
0.908658
0.584625
0.719832
0.82039
0.888453
0.998096
0.697806
0.830779
0.93159
0.825639
1.07406
1.19278
1.01518
0.542782
0.477767
0.550267
1.0437
1.03148
0.0116749
0.0108961
0.0109305
0.00961215
0.0124167
0.0110885
0.00963198
0.00949936
0.01026
0.01092
0.00880196
0.00872572
0.00858671
0.00924792
0.00975782
0.135369
0.0931668
0.0876903
0.0856486
0.174895
0.133814
0.145124
0.170742
0.187955
0.00809098
0.00850638
0.00748601
0.0075073
0.00817212
0.00736318
0.00727765
0.00771458
0.00703004
0.00679098
0.00683429
0.00668076
0.00702769
0.00786196
0.00734998
0.00685402
0.00691502
0.00715232
0.00781301
0.00818152
0.00696556
0.00716572
0.00269533
0.00421243
0.00237898
0.00287241
0.00421084
0.00789207
0.00326348
0.00256016
0.00202323
0.00270467
0.00227927
0.00281635
0.00319679
0.00178765
0.00241296
0.00291177
0.00289322
0.00609089
0.00318938
0.00843051
0.00408014
0.00399538
0.00383969
0.00422564
0.00480703
0.00420083
0.00445167
0.00468875
0.00427392
0.00400724
0.00386755
0.00374009
0.00376662
0.0042789
0.00418071
0.00459144
0.00445629
0.00439159
0.00411329
0.00428315
0.00405636
0.00465248
0.00377339
0.00407735
0.00431651
0.00371901
0.0145671
0.0307894
0.0273837
0.020373
0.00539662
0.0142994
0.000171107
0.000917985
0.0247975
0.00413197
0.0282924
0.0173473
0.0139936
0.0019834
0.00302941
0.0108251
0.00413534
0.00509521
0.00160638
0.00361672
0.00404665
0.00453538
0.00359028
0.0114204
0.00401207
0.00586377
0.00667503
0.00709976
0.00658597
0.00711752
0.00705312
0.00575026
0.00591017
0.0237301
0.0109408
0.0152005
0.0183859
0.00874799
0.0128369
0.0106678
0.0105624
0.00957841
0.0122377
0.00913758
0.00374521
0.0038075
0.00433358
0.00374992
0.00367803
0.00460409
0.00400355
0.00369628
0.00365238
0.00380812
0.00463046
0.00369309
0.00348494
0.00547836
0.00600516
0.00560013
0.00507319
0.00559495
0.00597909
0.0064177
0.00578398
0.00553959
0.00558158
0.00550034
0.00601396
0.00569653
0.154201
0.0910491
0.13051
0.148218
0.125362
0.0983083
0.121485
0.127936
0.128252
0.170164
0.165996
0.148956
0.167206
0.0136419
0.00723606
0.00914222
0.00684659
0.00581294
0.0134255
0.000479246
0.0186014
0.00701202
0.0058755
0.00624003
0.00349571
0.00182166
0.00109774
0.00587682
0.00848497
0.00714365
0.0172745
0.0145449
0.0266465
0.00785408
0.00359582
0.0416418
0.0358509
0.0883201
0.0226811
0.0373078
0.0184721
0.00861868
0.0327108
0.0119701
0.0130776
0.0195025
0.0104873
0.0180476
0.0109465
0.0286206
0.0130886
0.00572521
0.00834118
0.024978
0.0110598
0.00743792
0.0112425
0.0156373
0.426852
0.484702
0.431069
0.301112
0.401582
0.377425
0.472672
0.405821
0.365998
0.405745
0.440713
0.00397355
0.00385956
0.00411158
0.00428569
0.00441818
0.00406115
0.00426465
0.00411086
0.00429572
0.00430457
0.0040734
0.00409184
0.00417486
0.00201537
0.00901819
0.00530724
0.0409239
0.00253475
0.00633507
0.00335705
0.00387716
0.00636624
0.00828792
0.00447504
0.0054121
0.00584449
0.00504118
0.0105066
0.00426415
0.00522939
0.00530803
0.00852961
0.00452025
0.00484814
0.00481992
0.00357553
0.00383412
0.00307573
0.00217172
0.00468582
0.00336131
0.00345428
0.00455586
0.00348586
0.00377467
0.00397339
0.00379594
0.00387377
0.00352153
0.00334721
0.00378915
0.00385841
0.00396375
0.00392644
0.00425118
0.00418585
0.00403181
0.00394024
0.00396741
0.00400243
0.00401091
0.00395322
0.00452204
0.00412473
0.00411364
0.0158829
0.0146094
0.0185489
0.0129918
0.0132512
0.0171448
0.0186961
0.0151638
0.0173616
0.016106
0.013289
0.0174596
0.0142814
0.000584088
0.00407345
0.004182
0.00227357
0.00311528
0.00351365
0.00334462
0.0040043
0.00371966
0.00355525
0.00354312
0.00412202
0.00204005
0.00351774
0.00389945
0.00251459
0.00505739
0.00243946
0.00574806
0.00676284
0.00308193
0.007217
0.011936
0.00693731
0.00677186
0.0184054
0.0145935
0.011585
0.0202747
0.0270523
0.0206947
0.0254785
0.0323161
0.0184043
0.0200718
0.0241915
0.0272648
0.0190052
0.0269708
0.151283
0.597737
0.129719
0.215077
0.159723
0.414793
0.0517511
0.0568326
0.426074
0.0508772
0.200535
0.659896
0.241732
0.154482
0.248047
0.169195
0.0357512
0.162153
0.291257
0.0699801
0.384603
0.212424
0.0957093
0.0391376
0.145258
0.314331
0.335573
0.00807349
0.0186806
0.020081
0.000522981
0.00751686
0.765729
0.250789
0.665431
0.276099
1.32886
0.131796
1.1288
2.60075
1.80792
0.918519
1.91387
2.48754
0.842902
1.6258
0.3433
0.563017
0.530154
0.490415
0.485372
0.347985
0.148724
0.203501
0.504825
0.397725
0.129728
0.118116
0.438554
0.51726
0.169817
0.13051
0.218075
0.246888
0.225047
0.0435059
0.0791079
0.125208
0.112366
0.0720797
0.134096
0.0568146
0.18863
0.0201605
0.0401531
0.326852
0.500644
0.337618
0.403864
0.231044
0.0919268
0.113885
0.149574
0.376052
0.105299
0.306744
0.370499
0.188492
0.168484
0.189777
0.132737
0.157196
0.266571
0.483342
0.40815
0.0730582
0.271422
0.458283
0.277295
0.0374434
0.00558162
0.0183417
0.00431731
0.00323643
0.00335427
0.0286631
0.0047893
0.0268447
0.0316946
0.0355623
0.0247745
0.00395423
0.0010699
0.00340712
0.00667238
0.013965
0.0134749
0.5578
0.838544
0.776553
0.850761
1.01562
0.756126
1.4802
0.17448
1.2292
0.759781
0.272618
0.178069
0.279794
0.421086
0.761597
0.181299
0.961352
0.756216
0.19972
0.358183
0.0226592
0.199356
0.00290068
0.00296422
0.00247264
0.00244077
0.00285113
0.00279723
0.0028528
0.00269195
0.0028023
0.00310949
0.00274664
0.00274287
0.00256579
0.00258911
0.00260131
0.00256945
0.0026306
0.00281343
0.00266884
0.00256668
0.00770402
0.0253737
0.0783915
0.00427859
0.00139846
0.00297942
0.0855811
0.000726606
0.0188245
0.00359316
0.00366643
0.0265354
0.00352591
0.00357596
0.0258353
1.35786
1.81007
1.29828
2.5777
2.07989
2.46009
2.77853
1.22093
0.0104043
0.00819426
0.0244671
0.0196526
0.0205803
0.0058416
0.0100569
0.00557247
0.0209113
0.0151736
0.00605791
0.0150264
0.0812692
0.117681
0.964581
0.361903
0.0880942
0.159818
0.888162
0.668849
0.873018
0.923288
1.30614
0.675656
1.07714
1.70099
0.518477
0.201065
0.204942
0.283575
0.00235483
0.00514094
0.00595201
0.00733042
0.00683914
0.00228897
0.00296924
0.00546453
0.00503943
0.00620718
0.0094406
0.0041563
0.00365279
0.00698564
0.00341596
0.00838991
0.00996006
0.00433387
0.0253416
0.0274957
0.0652091
0.0796744
0.0433236
0.0740991
0.0266936
0.0312962
0.036058
0.0810501
0.0464746
0.03245
0.0979752
0.0328397
0.0263899
0.0485302
0.0599811
0.0304521
0.0254042
0.0662843
0.026827
0.0274581
0.0145434
0.0131837
0.0151044
0.0177395
0.0139134
0.0167792
0.0146734
0.0130788
0.0156653
0.0174709
0.0172438
0.0157929
0.0155474
0.014412
0.0157431
0.014025
3.616
3.17574
3.13089
4.00097
2.86488
2.56133
1.43678
1.24715
0.807647
0.830991
0.829018
0.857756
1.6619
0.826861
0.973198
0.818872
0.835029
1.19056
0.0597546
0.0970446
0.0825978
0.0527124
0.0316137
0.026167
0.0387875
0.0471272
0.091973
0.0706914
0.0344039
0.0283638
0.0278075
0.0312366
0.0604795
0.0374263
0.00815777
0.00289774
0.00288005
0.00286558
0.00411645
0.00302284
0.00303917
0.00313015
0.00239005
0.00223482
0.0114655
0.00872653
0.015117
0.000784698
0.00270912
0.00230494
0.00248428
0.00274706
0.00627854
0.0121864
0.464927
0.456754
0.375294
0.211532
0.0552996
0.22482
0.0201076
0.172681
0.222132
0.345453
0.0626247
0.0507265
0.121365
0.146262
0.0746833
0.0893107
0.0448724
0.0429636
0.0335727
0.0638478
0.0320466
0.0528123
0.00894521
0.0403915
0.0112391
0.00696859
0.00874696
0.00664721
0.247174
0.174579
0.108482
0.208799
0.30705
0.0648067
0.044082
0.184212
0.205369
0.183003
0.044662
0.0340229
0.105014
0.13169
0.0815599
0.0565902
0.0908345
0.0365306
0.0332624
0.00671583
0.039854
0.0387556
0.0428647
0.0405026
0.0277318
0.0326358
0.0157422
0.0139573
0.0194876
0.0131207
0.0485333
0.0473545
0.0238706
0.038626
0.0333377
0.0303386
0.0431506
0.0152431
0.00304041
0.0591986
0.0458757
0.0143832
0.0171651
0.0376933
0.000518475
0.00120895
0.00180202
0.000729631
0.00117263
0.0020236
0.000443765
0.000866355
0.00692235
0.0256918
0.0178933
0.00602455
0.00577267
0.0125875
0.00905283
0.0114363
0.00764341
0.00838414
0.00323439
0.00492569
0.000617586
0.00928899
0.00907772
0.00498251
0.00465584
0.00497544
0.00500233
0.00458549
0.00475681
0.0050602
0.00485901
0.00485737
0.00482069
0.0049556
0.00472105
0.00457729
0.00479638
0.0120675
0.012402
0.0167154
0.0162451
0.0171378
0.0172761
0.0119638
0.0106751
0.0142562
0.0151524
0.0123679
0.0153362
0.0132142
0.0138164
0.0442149
0.050744
0.0538393
0.0585637
0.112527
0.114389
0.121377
0.134538
0.0494883
0.0882789
0.0811604
0.0830643
0.112263
0.0813786
0.072004
0.377053
0.451575
0.0405629
0.0526978
0.140869
0.392374
0.485789
0.0079159
0.0551624
0.0279012
0.0622512
0.135476
0.0354955
0.0564106
0.0266211
0.00796816
0.0387012
0.648696
0.663597
0.456309
0.479948
0.375391
0.349139
0.477659
0.560268
0.343892
0.343455
0.44603
0.423186
0.404867
0.362305
0.295505
0.349017
0.38469
0.39128
0.403784
0.396719
0.394157
0.362201
0.220838
0.223405
0.325824
0.288873
0.304253
0.431058
0.188507
0.204985
0.207982
0.317924
0.16471
0.174351
0.398823
0.374046
0.348469
0.110045
0.16911
0.0828525
0.0653966
0.218596
0.201316
0.206267
0.148645
0.216483
0.0602575
0.154645
0.0678029
0.206419
0.244521
0.151848
0.187293
0.309674
0.315228
0.153994
0.231776
0.307282
0.346489
0.336286
0.279469
0.255756
0.243787
0.232128
0.268695
0.12102
0.159129
0.279706
0.180797
0.167888
0.179697
0.00356217
0.0037575
0.00392805
0.00358351
0.00333362
0.00368749
0.00334059
0.00338008
0.00363423
0.00339402
0.00335829
0.00333538
0.00341802
0.00341088
0.00335784
0.00335245
0.00335605
0.00336314
0.00331038
0.00337338
0.000349177
0.012397
0.00440429
0.00594952
0.0281656
0.0104154
0.0056195
0.0183822
0.00708037
0.00557783
0.00382725
0.0354214
0.00663315
0.00610102
0.00606238
0.00607064
0.00667347
0.00622921
0.00689334
0.00692714
0.00642358
0.00622881
0.00612449
0.00621144