/*--------------------------------*- C++ -*----------------------------------*\
  =========                 |
  \\      /  F ield         | OpenFOAM: The Open Source CFD Toolbox
   \\    /   O peration     | Website:  https://openfoam.org
    \\  /    A nd           | Version:  10
     \\/     M anipulation  |
\*---------------------------------------------------------------------------*/
FoamFile
{
    format      ascii;
    class       volScalarField;
    location    "7";
    object      nut;
}
// * * * * * * * * * * * * * * * * * * * * * * * * * * * * * * * * * * * * * //

dimensions      [0 2 -1 0 0 0 0];

internalField   nonuniform List<scalar> 
75457
(
0.0620802
0.0663222
0.0528037
0.0231319
0.0552431
0.0227008
0.0631732
0.0202799
0.02722
0.0266392
0.0248673
0.0418003
0.0564322
0.0200584
0.0220231
0.0189987
0.00718308
0.0150867
0.0173544
0.00755172
0.0111061
0.0114677
0.0231905
0.0192782
0.0157548
0.0242206
0.0216515
0.0158972
0.0187926
0.0143899
0.0130058
0.0207726
0.0230317
0.0160586
0.0136921
0.0177481
0.0163516
0.0258727
0.023262
0.02167
0.0233484
0.0201732
0.0162969
0.0190019
0.0299231
0.00752679
0.00390812
0.0167567
0.0966573
0.0545775
0.0773655
0.0943786
0.0888946
0.0794681
0.0581063
0.060122
0.122207
0.105773
0.0998353
0.0150836
0.0894918
0.100311
0.0520716
0.0449365
0.00787659
0.0413754
0.0135407
0.0454697
0.0571861
0.0116058
0.056631
0.0126305
0.0468698
0.00382185
0.0563125
0.0181106
0.0180161
0.178615
0.183562
0.152542
0.121814
0.125949
0.210744
0.180778
0.0670375
0.0844228
0.0971053
0.0904498
0.184173
0.1334
0.160317
0.139915
0.124721
0.115882
0.159529
0.098242
0.0977968
0.100928
0.0140959
0.122266
0.0949339
0.112357
0.00514534
0.00136437
0.00101388
0.00135704
0.00898397
0.00216576
0.0101651
0.0427229
0.0667232
0.0081105
0.0079058
0.0529808
0.012076
0.0846683
0.0116641
0.049628
0.0521846
0.0136978
0.00314108
0.0107112
0.0114534
0.0289327
0.058994
0.035652
0.00737282
0.0682123
0.0740568
0.0129023
0.0246538
0.130428
0.0415836
0.096511
0.156219
0.0566255
0.0512279
0.136191
0.123953
0.0098938
0.0304697
0.0489976
0.0690087
0.0348437
0.0412704
0.108883
0.0823917
0.0635372
0.0682591
0.137408
0.0111672
0.11777
0.0548749
0.0478413
0.0680402
0.070621
0.154576
0.00782383
0.0774641
0.124135
0.00773646
0.0584034
0.123355
0.000865653
0.000870393
0.000860753
0.000879976
0.000872758
0.000870031
0.000864596
0.000855596
0.0008821
0.00084943
0.000867491
0.000869812
0.00086819
0.0786999
0.0918009
0.115516
0.0964304
0.213257
0.00715891
0.180148
0.0750072
0.00870497
0.101856
0.188272
0.0889025
0.0754764
0.0173367
0.118236
0.0628396
0.0943241
0.0689028
0.0667685
0.0139505
0.0268643
0.0537673
0.0462993
0.0326245
0.0241006
0.0772255
0.0832995
0.00801053
0.0767144
0.0735761
0.069546
0.129161
0.116565
0.116323
0.106501
0.104115
0.01276
0.0132438
0.11069
0.0928657
0.0144328
0.103104
0.0145465
0.0152892
0.0630935
0.106725
0.078031
0.00973232
0.0834755
0.0837068
0.0138562
0.0676265
0.106013
0.00738491
0.0461858
0.0441586
0.0634874
0.0794735
0.0909517
0.1051
0.121002
0.089871
0.0903293
0.0917978
0.0901601
0.113335
0.00928812
0.124362
0.0735984
0.0935056
0.103676
0.118617
0.103903
0.0123418
0.102567
0.00959151
0.0683682
0.0106085
0.0873815
0.00761159
0.0663197
0.027445
0.0396676
0.00933475
0.0330647
0.0369767
0.0902314
0.0589756
0.090243
0.0171996
0.090541
0.0154221
0.0155956
0.0689531
0.0118331
0.0774548
0.136146
0.133475
0.0869603
0.123918
0.0917627
0.0774121
0.0111052
0.0832715
0.111705
0.009595
0.0991039
0.00859115
0.103536
0.00790097
0.10032
0.0669289
0.0759369
0.0908332
0.081853
0.0863208
0.142426
0.0088189
0.0684579
0.011855
0.0692294
0.110211
0.111355
0.0103683
0.117432
0.0530304
0.014512
0.0537609
0.0511323
0.117007
0.00161852
0.0591293
0.0801295
0.00870398
0.0997555
0.0629565
0.0489036
0.0439033
0.0786365
0.0703524
0.0824686
0.0768543
0.0507926
0.0256832
0.0524576
0.0426595
0.049493
0.0491034
0.0278201
0.111402
0.0947114
0.0881883
0.120853
0.0843104
0.0546015
0.0580331
0.0976822
0.00835236
0.0943159
0.0955963
0.133596
0.138503
0.0123382
0.108916
0.126427
0.0112452
0.0774911
0.059365
0.030735
0.0863544
0.0705062
0.0840855
0.0303077
0.0777851
0.0954879
0.0290001
0.0806139
0.116027
0.115891
0.145658
0.130604
0.02103
0.105021
0.135811
0.0182205
0.0137306
0.0196484
0.0131378
0.0844725
0.0863887
0.0795248
0.088881
0.0895408
0.0859662
0.0973926
0.0913327
0.0889669
0.0988452
0.0129953
0.0829283
0.0836893
0.117482
0.00850307
0.0604092
0.0550232
0.0617398
0.0144886
0.0189481
0.0681967
0.284402
0.100678
0.12267
0.0703107
0.0709668
0.09369
0.000894107
0.000930493
0.000851287
0.000849439
0.000918738
0.000940447
0.000884041
0.00093563
0.000892606
0.000928365
0.000837898
0.000847519
0.000841954
0.000869182
0.000849995
0.000842356
0.000823672
0.000841821
0.000895547
0.000901493
0.000858627
0.000817826
0.000793991
0.000802482
0.000868212
0.000857786
0.000857121
0.000800037
0.000790238
0.000827784
0.000841445
0.000910657
0.000903272
0.000850025
0.000847201
0.000884337
0.000868755
0.00085285
0.000852968
0.000908178
0.000899272
0.000876331
0.000895305
0.000867978
0.000860379
0.000857028
0.000856313
0.000891808
0.000916872
0.000860234
0.00088273
0.000891517
0.000872384
0.0498502
0.0254517
0.0266628
0.0246358
0.0259516
0.0433472
0.0223518
0.0264377
0.0195228
0.0477065
0.0201846
0.0188901
0.0193487
0.0206221
0.0167129
0.0462661
0.0457471
0.0284113
0.0589581
0.0308638
0.0296286
0.0307756
0.0500013
0.0295755
0.0294079
0.0276434
0.0467311
0.0340342
0.0513365
0.0297691
0.0294764
0.00576438
0.00363483
0.00536907
0.020595
0.0193923
0.0127597
0.00503671
0.00494523
0.0050318
0.00618118
0.00379364
0.0121183
0.0190892
0.0187136
0.0225441
0.0529797
0.0243213
0.0154148
0.0151047
0.000876971
0.000879171
0.000888869
0.00088629
0.000876315
0.000915967
0.000919139
0.000836114
0.000865456
0.000908049
0.000902442
0.000952305
0.000910318
0.000866123
0.000861328
0.000866132
0.000842588
0.00083941
0.000841384
0.000844757
0.000844996
0.000836437
0.000852994
0.000847136
0.000846382
0.00084827
0.000859442
0.000847796
0.000850964
0.00084888
0.000854505
0.000863127
0.000853528
0.000947232
0.000981364
0.000963462
0.00101154
0.00101366
0.000989123
0.000727624
0.00146399
0.000932427
0.00102769
0.000850733
0.000982369
0.000956736
0.00099596
0.00091998
0.000968945
0.000750569
0.0486264
0.0395623
0.0449156
0.0475885
0.0439596
0.0504445
0.0568973
0.051273
0.0504778
0.0455327
0.0439888
0.0487701
0.0562943
0.0511713
0.0533398
0.0606618
0.0513816
0.0551291
0.0213522
0.0278299
0.0313426
0.0373165
0.0115145
0.042194
0.0209561
0.0258401
0.028688
0.0490103
0.0332062
0.0321291
0.0325361
0.0155638
0.0223186
0.0219234
0.0254279
0.0207309
0.0275043
0.0265996
0.0273431
0.023995
0.0221983
0.0256523
0.0278762
0.0288718
0.0243479
0.0189211
0.0191523
0.0293879
0.020513
0.0272837
0.000920147
0.000919588
0.000919485
0.000985386
0.00103856
0.00091835
0.000884666
0.000965343
0.000944245
0.00094782
0.000853293
0.00102739
0.0530274
0.039005
0.0647063
0.0335196
0.0587338
0.0490128
0.0524649
0.0534715
0.0597998
0.0241155
0.0181489
0.0209381
0.0199413
0.0169678
0.0202593
0.019633
0.00446128
0.0132135
0.00388426
0.0122588
0.0231794
0.0195644
0.0243251
0.0187138
0.0179038
0.0129109
0.00885365
0.00460501
0.0212952
0.00757244
0.00939509
0.011025
0.00156692
0.000407297
0.0107077
0.00224154
0.000524659
0.0150165
0.0114319
0.00302249
8.16729e-05
0.000765219
0.000190827
0.00051183
0.00091598
0.000774776
0.00045565
0.0149946
0.0135278
0.0134781
0.0040854
0.0390306
0.0320307
0.0231219
0.0506099
0.0311742
0.0409554
0.0333401
0.0198308
0.0285311
0.0178826
0.0442105
0.0358031
0.0293504
0.0290139
0.0360036
0.0273398
0.0251685
0.0326558
0.0249418
0.0294068
0.0226705
0.0216618
0.0224263
0.021542
0.0203165
0.0257505
0.0241982
0.0234702
0.0266498
0.0185253
0.0180695
0.0243781
0.0421221
0.0686379
0.0735833
0.00730873
0.0194324
0.0617666
0.03894
0.0169913
0.0168191
0.0803707
0.0655415
0.101615
0.0943797
0.113026
0.0732537
0.096153
0.116532
0.106512
0.104366
0.0905098
0.0856024
0.113145
0.0854344
0.0972146
0.115953
0.100315
0.103291
0.105038
0.0927345
0.0920079
0.0797592
0.0955377
0.0129417
0.00972817
0.0287788
0.0210533
0.0243861
0.0111929
0.018888
0.0184809
0.0175977
0.0465123
0.0532118
0.0611832
0.00987976
0.0543967
0.0722829
0.0437765
0.0601334
0.00581845
0.0222489
0.0329613
0.0267549
0.0233203
0.0262894
0.0462634
0.0251574
0.018983
0.0475428
0.0198886
0.0868542
0.0843076
0.0816389
0.11433
0.0639554
0.134605
0.147065
0.105861
0.0884725
0.0826299
0.136503
0.12249
0.109063
0.0277235
0.0319679
0.0100643
0.0128902
0.00917497
0.00905421
0.0145657
0.0189049
0.0474012
0.0230923
0.0350414
0.0367298
0.0140399
0.0105781
0.0371924
0.023607
0.0362102
0.0353956
0.0297416
0.044142
0.0493358
0.025135
0.0191745
0.00771122
0.0311686
0.0105534
0.00721283
0.0342376
0.0321115
0.00856859
0.021714
0.0261408
0.0195089
0.0185613
0.0353209
0.012282
0.0162898
0.0481095
0.029032
0.0111239
0.00364916
0.00670234
0.039501
0.0554842
0.0288229
0.0313897
0.0432338
0.0524123
0.0298198
0.0309077
0.0366905
0.0245406
0.024257
0.0402168
0.0432473
0.0519394
0.0256348
0.026586
0.0359456
0.0524672
0.0332579
0.0292002
0.0392007
0.0290657
0.0493527
0.0434113
0.0108207
0.0171408
0.0205552
0.0249145
0.0151451
0.017143
0.0246617
0.0488015
0.0600422
0.0517312
0.0229165
0.0275596
0.0169085
0.0447554
0.0352594
0.00766007
0.00700315
0.0072939
0.00750736
0.00808361
0.00691925
0.00589855
0.00626507
0.0057559
0.00722791
0.00766643
0.00515613
0.00712716
0.00726172
0.000850968
0.000794757
0.000808303
0.000849204
0.000835375
0.000814579
0.00083126
0.00084525
0.00088686
0.000890517
0.0428673
0.0324705
0.0462544
0.0556244
0.0223622
0.020015
0.0526762
0.0634803
0.027719
0.045948
0.0453257
0.045662
0.0507839
0.0185361
0.0500943
0.04478
0.0119058
0.0994411
0.104704
0.0989591
0.153368
0.143989
0.120302
0.153881
0.14798
0.156882
0.166747
0.0917192
0.0936544
0.115295
0.106796
0.129727
0.152285
0.140039
0.0985933
0.109482
0.115139
0.00047516
0.000758943
0.000780723
0.000442594
0.00098901
0.00572067
0.00609002
0.001137
0.000771297
0.000715404
0.00589478
0.00729568
0.000422757
0.00377776
0.00484856
0.00807476
0.136164
0.163308
0.213415
0.205045
0.11204
0.16983
0.122922
0.173639
0.234929
0.212374
0.129022
0.151066
0.189018
0.0223985
0.0290184
0.0265945
0.0211363
0.0179987
0.0194057
0.0275843
0.0242104
0.0205967
0.0212632
0.0148139
0.0198148
0.0110205
0.0276798
0.0240437
0.0142364
0.0293889
0.0270306
0.0136016
0.0124226
0.0119331
0.0144653
0.000500429
3.73881e-05
0.000747083
0.000394134
0.000371317
0.00691532
0.0263795
0.00110147
0.00992855
0.0418885
0.0445701
0.0291147
0.027899
0.0314811
0.00971903
0.0282915
0.0342355
0.0291769
0.0128995
0.0128255
0.0266943
0.00657814
0.016729
0.0134363
0.0116984
0.0120062
0.0172875
0.00949229
0.0732982
0.0776384
0.0929176
0.0822106
0.0754212
0.0794684
0.0727663
0.0699275
0.0906582
0.080715
0.0928935
0.0867176
0.105283
0.0989185
0.095749
0.0893625
0.0153831
0.0327031
0.0280863
0.0166096
0.00252057
0.00429787
0.00580201
0.00257928
0.00247126
0.00228511
0.0225451
0.0145456
0.00399336
0.00657677
0.00577436
0.00478696
0.0222907
0.130911
0.085659
0.12078
0.0250442
0.0964526
0.0905155
0.0698331
0.0814883
0.0818889
0.0871286
0.113651
0.148838
0.145607
0.0801032
0.0978503
0.0995047
0.0991817
0.0901976
0.154324
0.00203533
0.00121187
0.00100008
0.000920609
0.00113841
0.000820934
0.000850542
0.000911224
0.000966331
0.00202494
0.00225175
0.00124037
0.00115562
0.00084447
0.00220903
0.011264
0.0133195
0.0217317
0.0302829
0.0373885
0.0343806
0.0372176
0.016364
0.0484171
0.06143
0.0569426
0.0303648
0.0644745
0.0632913
0.00639867
0.0100857
0.00459118
0.00610029
0.00560699
0.0077303
0.00326777
0.00209906
0.00798698
0.0021047
0.00492561
0.00196771
0.00283388
0.00181216
0.00161455
0.00185797
0.0311839
0.0332434
0.0273717
0.027046
0.0622795
0.062756
0.0192026
0.0421146
0.0403363
0.0236161
0.0632675
0.0533116
0.0648944
0.0512345
0.0549847
0.0636675
0.0671455
0.0650803
0.0637408
0.00498786
0.0156514
0.00657035
0.0102509
0.00542506
0.0329169
0.0112431
0.0187863
0.0212983
0.0165287
0.00514277
0.00702686
0.00697933
0.00623434
0.0235348
0.02034
0.0167297
0.0378626
0.0278188
0.0324832
0.0139719
0.0209226
0.0392516
0.027231
0.0214309
0.00191481
0.0016489
0.00145689
0.00958733
0.000519678
0.000858485
0.00342763
0.003013
0.00167318
0.00146102
0.00340974
0.00386853
0.00162264
0.00311739
0.00111833
0.000877874
0.000910351
0.00102811
0.00414772
0.00108231
0.00742323
0.00675362
0.00545897
0.0103655
0.00801475
0.0077909
0.0209055
0.00759117
0.0205124
0.0235547
0.018542
0.0131502
0.111251
0.160623
0.0136935
0.162234
0.0684266
0.101616
0.0692528
0.00986403
0.0115121
0.0925917
0.080982
0.0771042
0.0130684
0.0953209
0.0956284
0.0780438
0.0966016
0.0864418
0.0859448
0.0891844
0.0899951
0.0878027
0.0848886
0.0909529
0.0911914
0.0981152
0.0152247
0.0897338
0.0172698
0.0910466
0.090307
0.0898068
0.0854734
0.089356
0.110575
0.102289
0.107359
0.0230722
0.0397556
0.0139702
0.0235635
0.0165508
0.0113684
0.00689474
0.0164259
0.0101042
0.00886378
0.00650666
0.00686372
0.00734412
0.00807149
0.00915742
0.00595592
0.0686739
0.0408254
0.0582606
0.0687217
0.0630293
0.0637735
0.0730294
0.0705574
0.0605723
0.112728
0.0943916
0.122839
0.0528433
0.101484
0.0168163
0.100303
0.0140869
0.0629252
0.0246268
0.096693
0.021227
0.114661
0.0754244
0.0839513
0.0929035
0.0728489
0.112739
0.0144332
0.105416
0.0478754
0.0793917
0.0852784
0.0158573
0.0803116
0.111796
0.101504
0.105668
0.093039
0.0720085
0.152799
0.00993452
0.0542723
0.0677689
0.0142609
0.0669116
0.0854031
0.0502305
0.119454
0.0153214
0.132343
0.0675543
0.0975565
0.0131435
0.0819356
0.0575886
0.0992445
0.0595841
0.0934794
0.0148472
0.0947111
0.0627694
0.067191
0.0835513
0.0886251
0.0696634
0.0670657
0.0753069
0.0694338
0.0419959
0.0559678
0.0491502
0.0717073
0.0726195
0.0309181
0.0350894
0.0365738
0.0627786
0.0764678
0.0483704
0.0548358
0.0353279
0.066092
0.0683978
0.0191871
0.0213792
0.0108224
0.00885194
0.00993335
0.0114279
0.0257868
0.0244071
0.0122898
0.0160418
0.0111087
0.069878
0.0833963
0.05427
0.000912248
0.000903094
0.000916149
0.000963378
0.000909417
0.000881916
0.00319425
0.00362175
0.00547778
0.00289011
0.000130683
0.000994862
0.00137574
0.000812592
0.00254071
0.0023592
0.00716865
0.0024488
0.000567518
0.000684253
0.0302065
0.047376
0.0525687
0.0383833
0.02348
0.0308871
0.0208825
0.00965467
0.0420624
0.0581678
0.0468618
0.0175077
0.0209224
0.011587
0.028093
0.0261665
0.0296289
0.0333909
0.0289815
0.0058862
0.00282277
0.00422505
0.00363713
0.0337709
0.0349912
0.0166962
0.0225036
0.00820302
0.00446459
0.0234144
0.00984592
0.00502967
0.0273212
0.0382238
0.0202427
0.015974
0.0213474
0.0176997
0.0216324
0.0327845
0.0302349
0.046743
0.0351682
0.0454199
0.0881857
0.0871694
0.0925185
0.0962401
0.108816
0.0708289
0.0632581
0.0704513
0.0633823
0.0898636
0.0738854
0.0440251
0.0328374
0.0613311
0.0636602
0.0802647
0.076611
0.077781
0.0484874
0.0296091
0.0710255
0.104959
0.105832
0.103085
0.0914369
0.0378682
0.0565714
0.0834493
0.0748862
0.0608435
0.000961211
0.000974177
0.00102937
0.00114878
0.000998221
0.000979169
0.00166082
0.000964449
0.00109375
0.000757633
0.000973319
0.000948214
0.0010174
0.00104139
0.00110094
0.00110482
0.00107262
0.00101003
0.000998619
0.00103561
0.091324
0.104726
0.0767868
0.0999508
0.0735314
0.078407
0.0437383
0.0618179
0.0936968
0.0805668
0.0107819
0.101055
0.0521075
0.0525411
0.0816622
0.0760003
0.0107393
0.083527
0.0133424
0.0740243
0.000716014
0.00118849
0.00132991
0.000983403
0.000885729
0.000944352
0.00101553
0.000990193
0.00104062
0.000994152
0.000939608
0.00106819
0.00105234
0.000771104
0.00106379
0.000945414
0.00141937
0.152647
0.0888286
0.139821
0.0127391
0.0903142
0.106478
0.0933901
0.110489
0.0189385
0.107441
0.245666
0.0733679
0.000989114
0.000905557
0.000593692
0.000285044
0.000873295
0.000720635
0.000705294
0.00049353
0.000353368
0.000899871
0.000702012
0.000374453
0.00443649
1.93662e-05
0.00169804
8.06912e-05
0.00241846
0.00812355
7.17765e-05
0.00501683
0.00710402
0.0283489
0.0261558
0.0011724
0.00199091
0.0392644
0.0299961
0.0417384
0.00165311
0.00393689
0.00626137
0.00141471
0.00312797
0.00377664
0.00141655
0.0122891
0.00367244
0.00539584
0.00180018
0.0113101
0.028462
0.00963929
0.0129324
0.0188527
0.0573042
0.00200265
0.00294313
0.0435093
0.067997
0.00750693
0.00372141
0.0191074
0.0409682
0.0123514
0.0237481
0.0294503
0.0310893
0.0175006
0.0139651
0.0328204
0.0273459
0.0243035
0.0124153
0.00284717
0.0221493
0.0106591
0.00991658
0.00340544
0.0054884
0.00849208
0.0105124
0.0174922
0.000775484
0.001533
0.00101528
0.00103255
0.0224146
0.0212241
0.00311399
0.000399154
0.00196673
0.0128363
0.0212769
0.0212742
0.00159853
0.000463994
0.000712783
0.0188276
0.0108296
0.0630594
0.0514618
0.0176929
0.0572905
0.0450816
0.0330627
0.0162177
0.000323891
0.000190779
0.00209265
0.00744689
0.000667587
0.000960236
0.000971124
0.000443344
0.00148453
0.000961405
0.000933496
0.000978663
0.000975885
0.000569434
0.000556292
0.000891173
0.000912021
0.00103642
0.000778193
0.000743925
0.00103903
0.000832119
0.0143707
0.0105289
0.011283
0.0171908
0.011119
0.0343266
0.0503498
0.0145196
0.0259911
0.0321274
0.0212016
0.0321797
0.0269679
0.0180068
0.0636923
0.0740399
0.0263228
0.0997653
0.0604307
0.0571047
0.040523
0.0144069
0.018595
0.0554942
0.0529055
0.0290544
0.0287001
0.0296186
0.0167103
0.0210077
0.03117
0.0202095
0.0181804
0.0255305
0.0156192
0.00989957
0.0264342
0.037076
0.026863
0.0263509
0.0560617
0.0624099
0.0676545
0.0618223
0.0590495
0.0613499
0.0578068
0.0549655
0.0646676
0.0594741
0.0606897
0.0585138
0.0736055
0.056332
0.0554826
0.0592291
0.088833
0.0835335
0.085153
0.0899444
0.103608
0.0968531
0.104099
0.128038
0.0924069
0.129382
0.0141558
0.0889587
0.0870108
0.090229
0.102208
0.104935
0.0886898
0.108559
0.0193667
0.0860534
0.0979172
0.0209096
0.10169
0.0203497
0.0952167
0.0927084
0.0852507
0.0788024
0.01806
0.10193
0.0915112
0.0650073
0.077329
0.105507
0.0698058
0.0960926
0.0932941
0.0665789
0.0647668
0.0589716
0.101792
0.153946
0.109324
0.127654
0.0814293
0.109413
0.0918968
0.082274
0.116008
0.0985417
0.0970006
0.0956084
0.110458
0.0940823
0.123781
0.0250493
0.0981234
0.0928049
0.1034
0.0204028
0.0734716
0.0992747
0.0797667
0.115634
0.0467638
0.0521598
0.0565577
0.0874456
0.0778281
0.131772
0.0935041
0.0876081
0.0505376
0.0699531
0.0998282
0.0703085
0.0106483
0.00990739
0.0677796
0.0717914
0.0738476
0.0137576
0.106447
0.0779727
0.0862391
0.120493
0.107549
0.0113528
0.0753732
0.071292
0.0630938
0.0978236
0.0958866
0.0723103
0.0139291
0.0898746
0.0975312
0.0895007
0.0632069
0.107669
0.126125
0.065532
0.0641357
0.104314
0.0911064
0.08085
0.0114536
0.117409
0.0835817
0.0696161
0.0688172
0.0850047
0.0734413
0.0979092
0.0990375
0.0961156
0.0989643
0.0931594
0.102513
0.0947338
0.102471
0.0953483
0.092284
0.0911617
0.0891094
0.0924435
0.0846507
0.0866091
0.0893677
0.0880345
0.0249431
0.0231115
0.0332819
0.0313025
0.0297633
0.0359425
0.0225179
0.0203234
0.0285719
0.0281094
0.0268115
0.0487655
0.0311406
0.0326431
0.033416
0.043842
0.0280747
0.0393443
0.0344579
0.0480301
0.0439543
0.0423753
0.0288284
0.0244813
0.0218932
0.022817
0.0125808
0.00575672
0.00394194
0.0133275
0.0176664
0.00343364
0.00201905
0.0116442
0.0109037
0.00097392
0.0105764
0.00499165
0.00838975
0.00879767
0.128022
0.108755
0.0961038
0.106381
0.097141
0.104903
0.151726
0.115592
0.105589
0.125247
0.0994876
0.103308
0.118532
0.120789
0.175618
0.126894
0.134776
0.0311516
0.00617016
0.0344745
0.088025
0.085697
0.0079084
0.0240217
0.0215713
0.00361735
0.0565349
0.0749949
0.0919049
0.0446275
0.0444161
0.0867055
0.100227
0.031613
0.0317119
0.0345949
0.0342756
0.0425574
0.0449249
0.0328676
0.0941452
0.0978199
0.0416289
0.038185
0.0553231
0.0852783
0.0932162
0.0851226
0.0964873
0.0871062
0.0961553
0.0804548
0.0147563
0.0963313
0.0135782
0.0727524
0.0849465
0.0688224
0.0207126
0.0185155
0.0206813
0.0172999
0.00785426
0.0160622
0.010841
0.0103385
0.0152839
0.0171442
0.0169821
0.0152969
0.0122387
0.0159699
0.0408759
0.0518224
0.0338774
0.0371885
0.0573937
0.0345039
0.0365649
0.0581612
0.076995
0.0668985
0.0857666
0.0454205
0.0488675
0.0625672
0.0295354
0.0831632
0.0726449
0.0317372
0.0337911
0.169372
0.0425753
0.165521
0.206217
0.0627382
0.105497
0.115463
0.176315
0.198945
0.156825
0.163891
0.217017
0.230563
0.180297
0.00144405
0.00169478
0.000972169
0.00119177
0.00128571
0.00111235
0.00119088
0.0011333
0.000940378
0.000894313
0.0927679
0.0118782
0.0866125
0.0146213
0.0542911
0.04966
0.0411189
0.0605172
0.0738431
0.0740151
0.0860729
0.092856
0.0873415
0.0471773
0.0499694
0.0245402
0.0741696
0.0860774
0.0465697
0.0495438
0.0430371
0.0463714
0.0801465
0.0521652
0.0958537
0.067845
0.0563159
0.0211261
0.0485114
0.0973758
0.0624658
0.019172
0.0463105
0.0188453
0.0546848
0.0789239
0.0664509
0.0564254
0.0528637
0.0602805
0.00087074
0.000870686
0.0008737
0.000873806
0.00087289
0.000869083
0.000873854
0.000871389
0.000866721
0.000865791
0.000876287
0.000870751
0.000867068
0.000869258
0.000877388
0.000887056
0.000872423
0.000877062
0.000866281
0.116653
0.110185
0.0795329
0.0996218
0.0621422
0.0567168
0.0916258
0.101618
0.0620871
0.107609
0.0775414
0.107893
0.105096
0.0632346
0.114824
0.0991125
0.107904
0.0437652
0.000947985
0.000964811
0.000971604
0.00093474
0.000953626
0.000970974
0.000977122
0.000977728
0.000965919
0.00102869
0.00099421
0.000981938
0.00099499
0.00100982
0.00102788
0.00102215
0.000857595
0.000843016
0.000841614
0.000864204
0.000878389
0.000859426
0.000851348
0.000856525
0.000826552
0.000825449
0.000872509
0.000832732
0.000872639
0.00084409
0.000879223
0.000853281
0.000853763
0.000853236
0.000877241
0.000860341
0.000851544
0.000888541
0.000869367
0.000866243
0.000844992
0.000896739
0.000899793
0.000864333
0.000874388
0.000978233
0.000850809
0.000926127
0.000899184
0.000333987
0.000860363
0.000899336
0.000870209
0.000896455
0.000907463
0.000735562
0.000872836
0.000859054
0.000840238
0.000686363
0.000886789
0.000890538
0.000884966
0.000879714
0.000879117
0.00088077
0.000880444
0.000901232
0.000892962
0.000886435
0.000890243
0.00089071
0.000883361
0.000874404
0.000886614
0.000885724
0.000899691
0.000889888
0.000896519
0.000892803
0.082193
0.0818965
0.0796241
0.0575302
0.0691029
0.0642822
0.0783337
0.0728832
0.0753968
0.0490817
0.0493716
0.0710617
0.0666597
0.0707352
0.076488
0.0965548
0.0675112
0.0836885
0.0846482
0.0905082
0.0973487
0.0773321
0.0875892
0.088225
0.0909084
0.0942637
0.0997222
0.0895919
0.0545363
0.0528011
0.0519688
0.0841971
0.0931977
0.000908785
0.000909136
0.000896561
0.000946885
0.000913147
0.00090959
0.0008629
0.000886229
0.000887782
0.00087895
0.000882822
0.000896629
0.000897469
0.000893817
0.00087744
0.0439276
0.0320157
0.0302783
0.0296962
0.053512
0.0418254
0.0460982
0.052362
0.0566925
0.000882333
0.00088905
0.00088276
0.000881729
0.000893276
0.000881928
0.00088094
0.000887308
0.000886105
0.000873455
0.000870212
0.000854003
0.000868285
0.000886162
0.000881038
0.000868447
0.000844813
0.000854224
0.000897381
0.000885942
0.000884575
0.000832891
0.000718965
0.00110669
0.000635485
0.000765458
0.00111588
0.00201663
0.000857129
0.000700954
0.000533564
0.000730883
0.000601831
0.000768399
0.000841062
0.000492997
0.000663911
0.000793623
0.000779996
0.00165688
0.000862352
0.00229415
0.000820058
0.000838569
0.000788553
0.000904448
0.000958849
0.000881632
0.000919096
0.000948195
0.000876773
0.000838266
0.000804275
0.000808869
0.000802964
0.000903039
0.000889953
0.00093159
0.000921749
0.000886602
0.000887737
0.000888322
0.000865514
0.000944747
0.000811282
0.000903992
0.000939466
0.00080527
0.0053416
0.010673
0.00951446
0.00740334
0.00206552
0.00542615
6.94488e-05
0.000358426
0.00868259
0.00164066
0.00978299
0.0064878
0.00532891
0.000822287
0.00124066
0.00410687
0.00168206
0.00207863
0.00065191
0.00146178
0.00162243
0.00178869
0.00142375
0.00432904
0.00162279
0.00233163
0.00207888
0.00217539
0.00196495
0.0021306
0.00224151
0.00180731
0.00184805
0.00635865
0.00267538
0.00417399
0.00522016
0.00270438
0.00391756
0.00322486
0.00313441
0.00288488
0.00352311
0.00277695
0.000887095
0.000886049
0.000969053
0.000881985
0.00088485
0.0010503
0.00090695
0.000895163
0.000881172
0.000896725
0.00106918
0.000890564
0.000853372
0.000847909
0.000859871
0.000857294
0.000816533
0.000855728
0.000861817
0.00086195
0.000851073
0.000821077
0.000867965
0.000835468
0.000859664
0.000858406
0.0452576
0.0316237
0.0399976
0.0443835
0.0395364
0.0322196
0.0376666
0.0394134
0.0400912
0.0489755
0.0485366
0.0448526
0.0486269
0.00552092
0.00326811
0.00412109
0.00307125
0.00259809
0.00549723
0.000205419
0.0076015
0.00313161
0.00262699
0.00270982
0.00151612
0.000816137
0.000491629
0.00257828
0.00378337
0.00326722
0.00774514
0.00626497
0.0114188
0.00348921
0.00158125
0.0169403
0.0146817
0.0327097
0.00983116
0.015588
0.00773652
0.00372456
0.013611
0.00509814
0.00516331
0.00773724
0.00423963
0.00734854
0.00440278
0.0112189
0.00516865
0.00234083
0.00344235
0.00995464
0.00428889
0.0029965
0.00447131
0.00604617
0.0768224
0.0825769
0.0784289
0.0661068
0.0790416
0.0774573
0.088554
0.0819179
0.0772744
0.084662
0.0879911
0.000837733
0.000828858
0.000836571
0.000838351
0.000833679
0.00083649
0.000836112
0.000832437
0.000833359
0.000832402
0.000835904
0.000838431
0.000833718
0.000361978
0.0015652
0.000474804
0.00502997
0.000249078
0.00118502
0.000573565
0.000710208
0.00115473
0.00142881
0.00097126
0.00107743
0.00111336
0.00102991
0.00175594
0.000944478
0.00106828
0.00106215
0.00154694
0.000940799
0.000944019
0.000991731
0.000732669
0.000776688
0.000655003
0.000467971
0.00100067
0.000690027
0.000675188
0.000906574
0.000666807
0.000780887
0.000783407
0.000842445
0.000847594
0.000815871
0.000768952
0.000839337
0.000829654
0.000854577
0.00084012
0.000855265
0.000841542
0.000864948
0.000860011
0.000840708
0.00082899
0.000841606
0.000845853
0.000936207
0.000855346
0.000863094
0.000927902
0.000924473
0.000939336
0.000914063
0.000913573
0.000933293
0.000942405
0.000925791
0.000935444
0.000930405
0.000917623
0.000935246
0.00091389
0.000140522
0.000962261
0.00105685
0.000563053
0.000760606
0.000904959
0.000872406
0.000995482
0.000921323
0.000902273
0.000911923
0.00096742
0.000493093
0.000912425
0.000954128
0.000620429
0.00111347
0.000593887
0.00122085
0.00150111
0.000760483
0.00303449
0.00497792
0.00291842
0.00279007
0.00758357
0.00608481
0.00470283
0.00829766
0.0111363
0.00876401
0.0101783
0.0127351
0.00776716
0.00825878
0.0101734
0.0112865
0.00776849
0.0108585
0.036932
0.117493
0.0318406
0.0485359
0.0357748
0.0867497
0.0148805
0.0165817
0.0886159
0.0145186
0.0531916
0.125412
0.062299
0.0421069
0.0656246
0.0469365
0.0103618
0.0398118
0.0649371
0.0205481
0.0871162
0.0570793
0.0268773
0.0114488
0.0366273
0.0698131
0.0742586
0.00477981
0.0106145
0.0112541
0.000314069
0.00414264
0.0964965
0.0291205
0.0789481
0.045882
0.116554
0.0215253
0.0965821
0.173152
0.128172
0.0782149
0.0854851
0.175239
0.0761674
0.12425
0.0453396
0.0867906
0.0787076
0.0731388
0.0733978
0.0627957
0.041829
0.0509942
0.0812749
0.0701543
0.0388045
0.0369381
0.0679111
0.0797832
0.0466642
0.0393565
0.0611734
0.060604
0.0542268
0.00873977
0.0122927
0.0167644
0.00938018
0.0073276
0.0101498
0.00409
0.0114328
0.00382055
0.00915095
0.0172274
0.0156202
0.0150263
0.0109362
0.0125246
0.00972958
0.0140161
0.0072382
0.0201077
0.0151458
0.0642584
0.073496
0.0450749
0.0418942
0.0455839
0.0345831
0.0397642
0.0598308
0.0880051
0.0790082
0.0205246
0.063367
0.0909068
0.0631349
0.00745524
0.00139122
0.00383471
0.000930672
0.000883129
0.000906877
0.00618665
0.00138917
0.0059088
0.00641758
0.006718
0.00505491
0.00111999
0.000313465
0.000959681
0.00185033
0.00344751
0.003367
0.0677288
0.0843771
0.0814011
0.0924011
0.104838
0.082451
0.125499
0.0204996
0.119106
0.0725049
0.0409194
0.0269031
0.0412198
0.0538026
0.0789987
0.0260894
0.0941362
0.0767856
0.0318633
0.0447793
0.00483
0.0319827
0.000794624
0.000814962
0.000681934
0.000680957
0.000796393
0.000796001
0.000792583
0.000738949
0.000776342
0.000861745
0.000772598
0.000782767
0.000733176
0.00071607
0.000723575
0.00072536
0.00073783
0.000794836
0.000772151
0.000732028
0.0013453
0.00428408
0.0111491
0.00092374
0.000249096
0.000626239
0.0119308
0.000142614
0.00341184
0.000806464
0.000811411
0.00485723
0.000754882
0.000792399
0.00529558
0.156093
0.198604
0.149506
0.25388
0.198461
0.284833
0.282369
0.130161
0.00342919
0.00260478
0.00786304
0.00626398
0.00664106
0.00188864
0.00321358
0.00173694
0.00684625
0.0049698
0.00192027
0.00489297
0.0227985
0.0321372
0.0983873
0.0671695
0.0259231
0.0396452
0.0955131
0.0965604
0.0914985
0.0920888
0.0144297
0.0902277
0.0937341
0.0188315
0.0726002
0.0451285
0.046154
0.0581961
0.000789161
0.00169593
0.00198518
0.00243372
0.00222404
0.000755707
0.000993055
0.00173046
0.00163811
0.00202262
0.00302449
0.00130719
0.00119963
0.00230453
0.00111605
0.00264856
0.00309438
0.00139939
0.0144942
0.0156571
0.032472
0.0380802
0.0231894
0.0368144
0.0152957
0.017749
0.0199563
0.0379185
0.02425
0.018151
0.0422416
0.0180469
0.0145916
0.0249057
0.0303739
0.0169919
0.0142008
0.032481
0.0146804
0.0154097
0.000919257
0.000912745
0.000925403
0.000937076
0.000917331
0.000928712
0.000922231
0.000910973
0.000919311
0.000927011
0.000933125
0.000926686
0.00092695
0.000921268
0.00092591
0.000919435
0.422055
0.383889
0.375698
0.423341
0.358027
0.367175
0.208035
0.195685
0.15265
0.155666
0.146721
0.152072
0.263704
0.160702
0.179412
0.141699
0.145275
0.194792
0.0264824
0.0377046
0.0329356
0.0233527
0.0150695
0.0128279
0.0172759
0.0204286
0.0380804
0.0309844
0.0160181
0.0131841
0.0132762
0.0151206
0.0270378
0.0176674
0.00208779
0.000747154
0.000728024
0.000735155
0.00109956
0.000775232
0.000782884
0.000803099
0.000609592
0.000571935
0.00296134
0.00222372
0.00386564
0.000201995
0.000707007
0.000602033
0.000654299
0.000724372
0.00167885
0.00324827
0.052621
0.0529121
0.049231
0.031734
0.0108347
0.0311865
0.00342964
0.0272637
0.0329382
0.043481
0.0121328
0.0103699
0.0205083
0.0237905
0.0137963
0.0155566
0.012237
0.0117169
0.0102501
0.0190213
0.0107894
0.0156532
0.00320482
0.0125321
0.00400018
0.00267234
0.00317426
0.0025524
0.0697053
0.0576672
0.0423177
0.0645085
0.0787225
0.030886
0.0219918
0.0535911
0.0638745
0.0618754
0.0229789
0.0182832