/*--------------------------------*- C++ -*----------------------------------*\
  =========                 |
  \\      /  F ield         | OpenFOAM: The Open Source CFD Toolbox
   \\    /   O peration     | Website:  https://openfoam.org
    \\  /    A nd           | Version:  10
     \\/     M anipulation  |
\*---------------------------------------------------------------------------*/
FoamFile
{
    format      ascii;
    class       volScalarField;
    location    "7";
    object      omega;
}
// * * * * * * * * * * * * * * * * * * * * * * * * * * * * * * * * * * * * * //

dimensions      [0 0 -1 0 0 0 0];

internalField   nonuniform List<scalar> 
75457
(
32.9626
35.0197
26.9754
21.6936
25.9356
33.9345
28.5498
34.1469
17.2748
17.0011
15.9671
20.6294
19.9112
17.6497
2.25469
2.23874
2.00098
2.31352
2.21153
1.99025
2.14327
2.12477
2.31589
2.281
2.23203
2.43513
2.43125
1.91841
2.04623
1.90612
1.84348
2.13718
2.22097
1.82957
1.81165
1.88232
1.82925
2.33105
2.25167
1.84939
1.91941
1.838
1.82319
2.61652
2.88524
2.34968
2.26441
2.59336
6.14814
3.44704
4.89272
5.63271
13.8361
4.69063
3.75896
3.96027
7.86094
8.76374
7.94367
15.3117
12.0103
6.60399
8.73998
7.20226
7.07913
8.00397
6.6891
8.29591
8.50757
13.9466
8.20933
14.5332
7.77114
7.75194
8.07753
7.15463
7.60417
14.3597
11.0996
7.06302
16.5176
11.4487
10.6301
7.54146
5.70873
5.43532
6.15539
6.74774
11.5293
14.074
6.58104
5.97756
11.5193
6.04774
5.65891
3.36118
3.65749
3.89087
23.9065
6.80969
8.35475
10.9695
22.1407
20.0104
39.5594
41.1187
20.8299
18.6943
20.4609
7.28013
5.62252
15.6938
18.463
13.4078
5.31892
9.84382
22.0906
9.21228
8.59102
24.1925
6.03179
6.74889
6.69321
6.4185
7.52458
7.57997
18.1147
6.45376
11.4005
7.1936
6.85473
6.90498
6.54266
6.0642
3.31757
15.2926
7.02714
5.44801
5.71534
24.6255
4.40249
5.38145
6.63116
4.33188
4.54691
5.9609
7.09974
8.22359
17.9423
5.05648
31.9292
9.34286
5.10897
4.13461
8.99434
13.63
4.15954
26.7192
5.29764
6.98008
26.6597
5.35209
8.05025
6.03613
6.25978
6.5295
6.22386
6.39616
5.78306
5.78129
6.06364
6.29222
6.01553
6.14046
5.95294
5.81304
8.66481
7.9065
7.57286
11.6302
4.52695
26.2734
3.86686
12.0772
28.0527
5.16703
3.80351
9.5824
17.8114
39.3675
7.71532
7.7787
8.45256
13.1054
6.25126
25.2662
4.0156
4.6088
4.07086
4.41281
3.92563
7.51239
8.72032
12.9491
6.29644
7.18228
13.0333
11.65
12.5306
12.6544
11.0836
11.363
23.49
26.2146
9.51803
10.9439
25.1149
10.9799
27.4856
25.6363
26.2922
8.5931
12.0915
23.2491
10.5961
11.395
27.7607
13.242
7.84823
20.2929
5.05807
4.94894
19.8188
8.36201
9.71445
7.19027
9.3029
4.46629
4.75498
4.99717
5.26612
9.0075
21.507
7.14382
16.5215
10.1277
6.92793
7.28673
10.8926
24.68
10.4496
21.8035
9.86246
19.669
8.00528
14.0825
6.39522
4.69059
5.46456
3.32392
3.64008
4.1214
4.43414
6.23145
9.86013
17.8955
11.8511
29.9238
17.0422
19.7383
26.3688
16.8236
5.79089
6.12761
9.93285
5.98999
10.2887
11.4402
17.3889
10.1903
9.48226
16.2294
9.71834
15.3085
7.45891
14.7247
6.78834
4.20247
4.20744
5.47634
5.07431
5.47793
4.83997
20.5755
15.4741
23.8529
15.8382
8.29807
8.46376
22.3525
8.07543
9.30874
25.584
3.89797
3.84281
2.24222
21.7116
3.761
2.43048
21.7116
1.21753
2.93968
5.62235
2.57137
10.9368
10.5019
10.6645
11.2055
12.1696
22.387
10.4222
9.28647
8.55453
8.97676
22.387
4.47973
4.57987
5.10905
7.9744
12.7385
10.7843
9.58049
11.0776
25.5066
5.61134
5.77081
8.61466
7.80527
30.7849
9.77178
8.27919
29.3214
7.125
6.77766
18.5105
7.42703
11.9203
7.61891
18.5105
6.75088
6.74015
9.96535
7.42905
4.64184
9.33455
8.13159
10.0429
28.2971
8.28962
5.45108
15.834
22.7588
16.3198
22.1792
4.18825
3.95269
5.13072
4.84155
7.15183
6.10528
10.5976
5.91991
6.47176
8.32807
22.2495
12.1086
10.9903
7.35
18.0802
6.32992
8.4223
7.85943
18.9905
15.9208
18.127
4.17191
8.65185
8.74616
4.90567
4.33893
8.26863
4.52213
4.57699
4.42009
4.41027
4.57838
4.59465
4.50954
4.58163
4.6039
4.6042
4.52235
4.4307
4.52321
4.48695
4.44668
4.56465
4.43974
4.41719
4.36787
4.36638
4.44602
4.38221
4.46415
4.39634
4.49625
4.4779
4.36773
4.4304
4.41483
4.46333
4.44872
4.2621
4.32447
4.33588
4.37336
4.32057
4.35185
4.38478
4.43608
4.26602
4.30335
4.26759
4.26324
4.3225
4.36817
4.33622
4.4175
4.34994
4.37529
4.33899
4.37543
4.33228
4.36192
3.68546
2.86824
2.88603
2.87927
2.86731
3.50056
2.87696
2.8287
2.7448
3.76662
2.6996
2.78523
2.76993
2.81633
2.64394
3.38331
28.8349
16.9399
18.7228
16.9399
12.8106
13.1541
14.415
17.0862
12.3691
12.9559
33.9367
32.5186
27.1434
19.5114
13.6306
10.4866
3.5612
3.50455
3.76648
3.90597
3.69985
3.61831
3.54955
3.50321
3.59212
3.62145
3.65537
3.84563
3.8191
3.59613
4.68023
3.7219
3.63994
3.64452
4.55611
4.60978
4.57426
4.50443
4.47787
4.51409
4.52902
4.54177
4.53944
4.52508
4.55482
4.62593
4.54341
4.58235
4.60525
4.62295
5.82912
5.595
5.91594
5.5904
5.36331
6.01572
6.35879
6.03387
5.86276
6.034
5.87177
5.76073
6.01525
5.73861
5.8079
6.24444
6.3354
4.69972
4.86072
4.66893
4.69816
4.62012
4.58912
4.67101
4.80107
4.59989
4.4972
4.71171
4.55239
4.49072
4.50338
4.56545
4.43904
4.61015
4.16372
3.44076
4.05893
5.1462
2.92196
4.37984
3.15635
4.06702
3.11386
3.04822
3.77702
5.08419
4.15822
3.37988
3.52687
3.22518
4.8191
4.94322
2.12499
2.16001
2.20979
2.45168
2.00233
2.5532
2.11057
2.13319
2.14104
2.72481
2.29311
2.15598
2.22614
2.04649
2.39879
2.3648
2.49463
2.34475
2.59324
2.56132
2.55165
2.45676
2.38129
2.55532
2.61889
2.59498
2.44972
2.29734
2.33374
2.59869
2.41025
2.56086
4.25723
4.26882
4.29265
4.51566
4.57494
4.28941
4.28824
4.49908
4.4232
4.47717
4.26782
4.55085
3.78067
3.23682
4.11079
3.11426
4.00437
3.66519
3.95551
3.93693
3.9353
2.86149
2.74493
2.86477
3.09021
3.04205
2.86522
3.06579
1.92141
2.35829
1.89034
2.20631
3.0905
2.78433
3.48329
2.72763
2.66968
2.25436
2.07978
1.96824
3.3388
2.04101
2.14247
2.31532
3.64109
3.6205
3.64096
3.67612
3.8016
3.68964
3.63909
3.5943
3.58034
3.67153
3.7023
3.67113
3.68982
3.75793
3.76172
3.66807
3.63315
3.7064
3.58362
2.31214
2.25752
2.04311
2.60368
2.25393
2.48363
2.44975
2.16754
2.22734
2.02776
2.47733
2.35912
2.23162
2.25567
2.58208
2.46007
2.41173
2.59292
2.37764
2.50399
2.22843
2.22559
2.31687
2.15358
2.14486
2.49782
2.30877
2.23176
2.28704
2.09893
2.11574
2.26756
5.10767
6.33005
6.41095
3.99201
3.98929
5.48243
4.78557
3.4003
3.71775
6.92046
5.59899
6.99468
6.44421
8.10963
8.27442
7.74708
8.33365
7.28952
7.66493
6.46474
6.3958
8.33625
9.75935
9.72692
8.90522
9.65961
9.95068
8.58007
7.40894
7.93825
7.76373
7.69968
2.72671
2.76236
2.99505
2.85551
2.86102
2.65594
2.79182
2.79687
2.77205
3.47352
3.83353
4.31683
2.59848
3.79095
5.11282
3.49938
4.36721
2.02332
2.8683
4.0871
5.36944
2.9628
3.2177
8.88792
6.23506
3.55467
6.5347
3.76738
4.41863
3.91272
4.13755
5.78161
5.64096
6.67099
7.27937
7.65567
7.72104
6.1474
7.70755
6.91731
7.6751
2.06048
2.11944
1.80352
1.85132
1.84895
1.80103
1.94861
1.98721
2.47748
1.96947
2.15474
2.23071
1.82924
1.83712
2.30402
1.87906
2.14821
2.11956
2.03037
2.47561
2.54453
1.94912
2.56275
2.29775
2.71777
2.31812
2.286
2.91672
2.7714
2.18877
2.51363
2.72987
2.54039
2.53621
2.8698
2.20548
2.36842
3.07206
2.61244
2.2316
2.05975
2.08443
2.71245
3.43576
2.20065
2.3074
2.84406
3.21181
2.23534
2.2087
2.49678
2.21088
2.22197
2.67252
2.76639
3.16636
2.2699
2.24288
2.43156
3.20149
2.25121
2.23142
2.46743
2.17804
3.6496
4.93786
2.10354
2.24438
2.41076
2.64714
2.19816
2.29277
2.55137
3.18651
3.72673
3.40351
2.37232
2.34008
2.17519
2.56137
2.39263
2.62938
2.61503
2.43803
2.49321
2.47712
2.3808
2.32059
2.44588
2.43893
2.50471
2.47163
2.32681
2.52949
2.57535
4.45334
4.74041
4.84177
4.53621
4.69247
4.74069
4.85132
4.6133
4.70504
4.81809
3.02175
2.66455
3.0378
3.4013
2.50273
2.47487
3.3507
4.06183
2.57805
3.31899
3.17199
3.17547
3.58005
2.55882
3.45799
3.18082
2.47729
5.64416
5.95086
5.76993
6.11965
5.83994
5.55514
6.12723
5.84021
5.65199
5.58516
5.69987
5.61765
5.90954
5.61267
5.99431
5.47676
5.54498
5.36402
5.57356
5.38659
4.764
4.83281
4.7444
4.77168
5.02161
5.16183
5.60979
4.9155
4.90817
4.78773
5.48799
5.54627
4.74223
4.85824
5.09504
5.83231
10.4616
9.21329
8.43317
8.89076
11.9376
10.0104
12.0808
12.0036
10.493
10.1803
11.9181
10.9292
10.7215
2.76224
2.96713
2.78469
2.67035
2.58449
2.62427
2.91477
2.80676
2.65112
2.69102
2.44963
2.70327
3.85329
4.26329
4.00392
3.89755
4.19958
4.11175
3.77203
3.74049
3.70407
3.77446
3.80001
3.76911
3.85995
3.83223
3.92597
3.85877
4.03358
3.85751
3.85925
3.78628
3.77783
3.63942
3.63132
3.84822
2.81791
3.20093
3.64369
3.3809
2.71474
2.72235
3.25042
2.59807
2.93213
2.85543
2.66509
2.66168
2.89109
2.70201
4.53833
5.16276
6.19521
5.15886
4.79494
5.35
4.59217
4.65095
5.7729
5.45995
6.13502
5.68828
6.8437
6.71377
6.59259
6.14972
4.50504
4.92225
4.64626
4.41424
4.41098
4.49719
4.42876
4.40145
4.4297
4.52069
4.60145
4.49588
4.57456
4.58468
4.81888
4.65844
13.49
12.5478
12.9896
12.3803
14.185
12.5331
5.90797
6.58733
5.9899
6.38524
6.1728
7.16339
9.53488
11.1474
10.9277
8.42683
10.2456
10.3332
7.10703
10.9537
6.6757
7.62956
7.3451
7.07099
6.8345
7.15087
7.73545
7.37407
6.88917
7.30801
7.37509
7.05591
7.49025
6.95973
7.12966
4.99057
5.29542
5.26261
5.28516
5.88272
6.23602
7.05351
6.00445
7.35229
7.77016
7.35761
6.58524
8.29866
8.79019
3.73145
4.12747
3.61473
3.72051
3.60507
3.80283
3.41899
3.2301
3.9526
3.46526
3.61032
3.22208
3.37362
3.2111
3.23794
3.18924
2.37654
2.42053
2.31943
2.33996
3.5825
3.66551
2.19454
2.86788
2.88666
2.19042
3.49021
3.30076
4.10313
3.22174
3.2137
3.74825
3.64942
4.36704
4.49767
2.65861
3.29868
2.98546
2.88559
2.75251
3.87661
3.12268
3.43804
3.66754
3.46004
2.58719
2.64088
2.87231
2.66277
3.6518
3.42314
2.7726
3.1864
2.91888
3.04121
2.62043
2.74452
3.17532
2.83226
2.75044
8.2671
7.19603
7.20944
8.13552
8.52323
7.55492
7.38916
7.58303
7.55041
7.47844
7.62117
7.45471
8.22469
7.99369
8.08076
8.33529
8.04702
7.84412
7.40885
7.86523
3.10831
3.06952
3.03293
3.00188
3.03522
3.19191
2.95384
3.0363
3.17224
3.04563
3.01376
3.00739
4.80952
7.03627
24.1247
5.42598
18.4955
6.38924
11.36
20.6412
22.1864
5.17028
11.5078
14.1865
23.7342
6.65274
11.3308
4.00372
8.32625
5.28196
4.61464
7.99478
9.37724
7.4048
4.56718
3.86984
3.7963
12.1122
14.1093
13.3162
14.8951
3.75574
3.91542
3.76361
3.6195
3.73763
5.52119
6.17786
5.14898
1.891
2.20551
1.75153
1.89304
1.7681
1.70017
1.65626
1.75959
1.71284
1.72225
1.76594
1.72194
1.71093
1.71219
1.73801
1.71529
4.79128
4.77909
5.53159
5.43997
10.1412
8.30555
4.57995
6.31624
7.86703
7.51682
8.35937
7.40327
3.76857
11.6035
13.5812
9.66062
12.4261
4.50147
2.76724
9.60168
2.83054
8.48295
16.5606
4.80495
8.17642
4.12353
9.92349
18.7308
10.0638
2.78762
4.43649
5.19198
19.6737
4.53508
6.61662
8.06555
12.6557
4.16413
8.05484
3.7144
21.2213
5.86191
7.10239
25.4818
5.37496
8.48171
7.78135
7.62577
16.0519
5.57591
6.52411
11.0597
15.0229
4.44867
3.94541
8.55244
3.83499
8.69744
15.97
8.52009
3.47206
3.86253
14.8195
9.24657
3.82293
3.53021
4.34962
3.64806
2.60136
3.06088
2.76558
3.72744
3.86668
2.33409
2.4641
2.4904
3.44426
4.27318
2.83591
3.07493
2.45981
3.38675
3.53616
4.33287
3.67903
4.08424
4.12256
3.89604
3.93638
4.66881
2.79378
3.62783
4.26504
3.93838
5.92851
8.35444
5.29789
11.8971
11.581
10.9883
10.7679
12.2787
10.624
10.1931
10.7828
11.1157
11.058
12.3982
12.9198
10.2095
10.438
10.8182
11.2247
10.9146
12.3892
11.6199
10.8073
7.80897
9.74877
6.86091
6.72435
10.594
10.5828
17.7634
15.5471
6.48691
6.88085
7.89889
10.2038
11.2571
13.0636
7.91284
9.99423
6.43487
6.45567
7.25107
5.14087
4.51906
4.61995
4.06825
10.1912
14.4158
9.5216
11.502
4.48814
4.39432
11.2996
7.58512
4.76347
6.04236
11.6669
7.61088
5.73722
10.6932
5.80346
10.0738
2.03828
2.04572
2.447
2.12629
2.38156
8.97964
11.5933
5.11876
5.40686
3.45808
3.27549
2.53301
3.34048
3.05381
6.53295
3.00158
2.41855
2.10349
2.98195
7.53079
6.22554
6.2425
6.44872
6.60719
7.67146
6.84241
6.40792
6.11582
6.85003
7.5716
10.9595
9.62533
6.75962
6.94492
8.34197
24.4798
22.8329
24.0479
26.0452
30.4412
27.4789
30.3346
43.4247
40.9907
36.547
32.3045
31.6974
44.7022
33.7488
32.5178
31.2396
38.9007
38.7562
39.478
29.3591
7.9471
9.55579
7.79856
10.0734
6.2426
6.65517
4.24019
5.25502
11.8902
8.10428
16.9314
9.25594
4.65893
4.43558
14.0062
11.0016
16.887
8.75326
18.9362
6.51425
30.6424
37.5239
41.4738
55.8864
42.0926
29.829
24.6179
39.5064
47.109
41.9994
45.3276
35.6065
62.5775
41.0427
79.004
80.9888
55.2762
3.24001
11.8732
6.85972
31.5518
6.00928
5.78648
8.40629
7.63205
38.7434
7.45649
2.00371
20.8662
12.1267
11.5945
15.2048
14.5477
13.1317
11.6016
10.9381
10.6844
14.0182
15.1309
12.593
12.9308
12.8445
14.1894
11.5777
12.8931
12.8181
12.0132
15.4365
11.2199
11.3311
5.80861
5.69922
5.4916
5.6295
6.32324
5.87352
6.30864
5.73831
5.5166
5.63787
5.5928
5.4746
5.41552
5.36733
5.83522
5.68177
5.5998
5.50018
4.81719
5.25258
4.80539
4.97655
5.08414
6.30385
4.76931
4.94849
6.07064
6.94525
5.12758
4.84284
5.06998
5.90208
5.15185
6.01419
6.44204
6.44045
6.06643
5.69084
6.55823
5.56552
6.34241
6.22653
6.34907
5.59692
6.23716
6.21823
6.25585
3.16895
3.2408
3.21524
3.38399
3.07732
3.04202
3.16052
3.14617
3.54525
3.7117
3.14161
3.15035
3.20662
3.33902
3.52288
3.43377
7.11796
7.17072
7.30611
7.11313
7.07904
8.10745
6.96523
7.06259
8.47098
7.27123
6.5831
6.41331
7.11942
7.85001
7.68582
7.21734
7.2563
21.8413
21.9961
16.7858
18.117
19.6364
21.9396
25.1954
25.5085
18.6393
19.7754
25.5632
30.1091
24.8714
26.6352
23.7611
25.1493
24.1292
7.57258
5.83394
5.47588
7.4868
5.10502
12.3335
19.8355
5.24922
10.8728
11.1116
7.43985
9.93091
11.4594
5.39397
3.4111
10.8534
22.5995
5.28936
8.28766
6.79896
5.64078
4.64152
4.4709
6.87959
6.56862
5.28216
5.17299
4.93492
4.82282
4.78636
5.01383
4.65653
4.49872
4.8683
4.60029
4.64333
4.86889
5.27376
4.69506
4.69262
3.54945
3.38254
3.23572
3.46695
3.85825
3.2894
3.08492
3.21044
4.17973
3.29239
3.43598
3.63021
3.92913
3.40869
3.16515
3.11382
5.3479
4.37496
4.76543
5.64128
4.7167
4.2591
8.7761
5.74981
6.113
6.06889
13.8855
8.0548
4.92916
8.90142
4.30281
7.15525
8.83748
13.6337
16.0929
9.97237
14.3033
16.5982
10.6301
15.2301
11.1699
7.82708
5.85301
4.55271
14.5068
9.68824
11.0132
3.03661
4.35703
11.3468
3.91371
10.2606
9.3548
3.81026
3.50487
3.29679
8.0615
5.40056
5.49786
5.48353
6.55445
5.46663
5.58697
6.31543
5.52773
5.79937
6.56884
5.77951
5.82872
8.01754
6.55033
9.3691
6.04487
7.2406
8.43705
9.55797
8.85072
8.24614
7.44379
5.50026
4.411
4.50069
4.68682
8.39469
6.92346
7.29444
6.9273
6.48528
4.19224
6.17508
7.56083
7.62917
18.1779
17.6243
6.36782
6.43371
6.88468
20.7253
8.40148
12.0925
7.43953
3.29938
8.97667
14.6917
6.08903
4.79232
4.02421
9.59755
8.372
14.1962
16.2552
6.64922
9.06275
9.92384
4.12474
6.18743
5.90528
4.43613
4.41286
9.57963
8.76818
10.0634
15.7611
6.93421
10.2695
4.48532
4.19028
7.81053
4.34948
4.28921
4.28075
3.70473
4.35016
3.6733
3.58097
3.60265
4.53777
3.43704
3.35335
3.637
3.52256
3.21135
3.1901
3.29527
3.21282
3.19326
1.89037
1.88097
2.02155
1.99772
1.97973
2.13831
1.83443
1.77361
1.93449
1.91184
1.8081
2.19622
1.96288
2.0455
1.95825
2.10903
1.91645
2.05014
2.01196
2.3971
2.27329
2.04455
2.29118
2.05901
2.01643
2.01
1.75018
1.62097
1.58733
1.77792
1.85711
1.57772
1.55665
1.69008
1.68006
1.54275
1.64564
1.59617
1.60989
1.62398
6.96938
7.64943
8.75086
9.11817
8.18667
8.56426
7.44712
6.72201
8.61379
7.33499
6.91277
7.18395
7.00163
6.56618
9.03696
7.41127
7.98961
3.93805
3.45497
3.94979
7.6364
6.31435
3.45798
3.7485
3.73684
3.29842
4.61602
4.84547
6.85976
3.01375
2.94047
5.09205
6.46721
2.53538
2.66869
2.65416
2.65803
2.89964
3.82231
2.80313
9.47929
7.32069
3.32072
3.10561
4.67405
5.59114
8.18483
5.99613
6.23005
7.08479
7.91796
15.0119
20.7316
10.6189
19.8405
4.37738
7.37158
4.17058
1.76754
1.72557
1.77529
1.72654
1.62279
1.76192
1.70001
1.69426
1.78131
1.84947
1.78572
1.74781
1.70839
1.76544
3.13285
3.11912
2.7894
2.775
3.99813
2.57938
2.7493
3.70667
4.33815
3.72617
4.60392
3.39393
3.0569
3.84495
2.48489
8.4641
3.50266
19.3013
22.6198
3.12304
22.6185
6.80097
5.64174
12.7742
6.12253
7.52637
5.85887
5.10286
4.71017
7.08549
5.37208
5.12714
6.02584
20.389
24.2396
25.6147
20.3887
21.2784
21.4968
23.7095
19.6287
23.4725
19.5358
9.9571
10.618
7.62041
11.7767
4.27206
3.88143
3.48845
4.7737
7.1208
8.71491
10.404
9.97052
8.73661
3.66947
3.8413
2.76023
7.93522
9.46742
3.83861
3.73473
3.6294
4.03312
3.00787
4.29558
3.38052
3.53526
5.44789
12.2309
5.83224
3.242
3.38106
12.2309
10.0427
12.2309
5.54165
3.02513
3.05206
4.45558
5.50234
4.07068
7.99163
7.86915
7.45918
8.00199
7.59147
7.28368
7.67074
7.53965
7.08805
7.44898
7.15551
7.4942
7.77601
7.52951
7.15591
6.78038
7.01883
6.73841
7.22434
7.79308
7.75795
7.38738
7.63715
7.34381
7.25501
6.63781
6.0676
6.36266
5.99429
7.23761
7.24827
8.17625
7.77807
5.9799
5.99398
6.19896
7.10513
29.2623
29.9937
24.9808
23.6201
38.8024
31.9773
36.7121
30.9427
29.0103
45.8773
35.6827
37.5612
37.1946
44.0145
58.1767
55.9064
4.68007
4.88212
4.87753
4.66387
4.62576
4.66506
4.68737
4.60719
4.80939
4.80289
4.55448
4.71606
4.56485
5.45206
5.19303
5.49235
5.47173
5.39702
5.10639
5.76766
5.53882
5.7267
5.47908
5.63846
5.76077
5.35244
5.50406
5.37284
4.87874
4.95169
4.75132
4.82787
5.15142
5.05706
4.73328
4.76052
5.10702
4.91567
5.00966
5.03892
4.93306
4.95709
5.09413
5.26988
9.95484
9.90978
9.72448
9.09999
9.25259
9.61123
8.94065
8.78175
9.22337
9.36927
11.2129
11.015
9.50958
9.183
9.31901
9.39716
10.8507
9.74924
9.90876
9.72639
8.18308
7.96386
7.63486
7.31114
7.9055
7.77442
8.51458
7.88614
8.83411
6.67365
7.08618
8.56021
7.38476
8.10483
8.59134
9.41081
8.65967
8.60132
9.69176
9.81627
10.2528
9.02349
9.48495
10.5593
9.08209
11.3942
11.9611
11.3312
9.95269
9.04843
10.5884
12.3959
11.0677
12.8467
11.9852
12.1916
10.1513
13.5977
12.1907
11.1623
10.7189
11.5569
12.424
9.97026
9.73169
9.56769
10.3465
11.1208
3.08163
2.91003
2.89614
2.88417
3.26833
3.19935
3.14815
3.26081
3.31533
9.16998
9.56794
8.48024
8.51429
9.14847
8.34896
8.26123
8.69436
7.93365
7.77485
7.8536
7.82287
8.09376
8.87193
8.34241
7.89227
8.18527
8.37289
8.70645
9.23483
7.87448
8.60343
3.7489
3.80632
3.74356
3.75253
3.77356
3.9135
3.80745
3.6524
3.79192
3.70056
3.78723
3.66521
3.8009
3.62608
3.63446
3.66896
3.70927
3.67612
3.69847
3.67478
4.97543
4.76452
4.86928
4.67207
5.01333
4.76483
4.84353
4.94492
4.8746
4.7804
4.80874
4.62385
4.69089
4.73833
4.69768
4.92861
4.83461
4.95328
4.63345
4.82161
4.68664
4.92458
4.65115
4.51038
4.59464
4.61834
2.7271
2.88479
2.87811
2.75186
2.61272
2.63528
2.46378
2.56116
2.856
2.51848
2.892
2.67384
2.62598
2.41205
2.44177
2.63585
2.4585
2.45124
2.46411
2.47419
2.49419
2.53558
2.52171
2.63809
2.47234
2.51488
3.21088
3.26367
3.35172
3.34062
3.14659
3.18166
3.19805
3.73194
4.08946
3.64172
3.52209
3.23475
3.27675
3.30799
3.36982
3.32022
3.47356
3.29051
4.22188
4.29716
4.47198
4.25169
4.15667
4.38361
4.4143
4.12917
4.14491
4.2467
4.33087
4.14691
4.08374
6.46103
6.98378
6.53233
6.21308
6.53824
6.93777
7.44555
6.7961
6.74674
6.43065
6.58354
6.99571
6.63617
3.40719
2.87914
3.26294
3.33948
3.17079
3.05119
3.22528
3.24599
3.19902
3.47447
3.42001
3.32101
3.43854
2.47095
2.21414
2.2184
2.22925
2.23739
2.44224
2.33301
2.44707
2.23911
2.23659
2.30275
2.3057
2.23205
2.23287
2.27936
2.2427
2.18646
2.23036
2.32162
2.33356
2.25096
2.27404
2.45815
2.44188
2.70012
2.30706
2.39336
2.38766
2.31401
2.40326
2.34794
2.53279
2.5206
2.47363
2.45595
2.48628
2.55111
2.53231
2.4458
2.42311
2.50918
2.57872
2.4822
2.51436
2.58632
5.55635
5.86971
5.4963
4.55493
5.08064
4.87268
5.33767
4.954
4.73635
4.79253
5.0086
4.74321
4.65648
4.9148
5.11204
5.29961
4.85499
5.10057
4.93834
5.15471
5.17126
4.87305
4.88035
5.00752
5.56765
5.76169
5.57453
8.13602
5.64694
5.34596
5.48691
5.45919
5.51318
5.80058
4.60746
5.02314
5.24939
4.89478
5.98349
4.51482
4.89514
4.99746
5.51386
4.80469
5.13563
4.86011
4.88015
4.9365
4.69576
4.64071
4.6827
4.87128
5.11604
5.02536
5.22769
4.83382
5.07193
4.50586
4.57031
4.31628
4.35295
4.51446
4.65063
4.63826
4.67367
4.9706
4.97402
4.66133
4.58161
4.71913
4.82808
4.76578
4.67365
4.83016
4.8223
4.76615
17.117
15.8029
19.7468
14.2133
14.5048
18.3702
19.8387
16.3793
18.5597
17.3108
14.482
18.6684
15.6271
4.15656
4.23321
3.95704
4.03792
4.09579
3.88267
3.83379
4.02247
4.0373
3.94033
3.88533
4.26084
4.13725
3.85537
4.08693
4.05298
4.54201
4.10761
4.70824
4.50522
4.05259
2.37833
2.39779
2.37708
2.42713
2.42701
2.39835
2.46341
2.44342
2.42921
2.36133
2.50322
2.53757
2.36951
2.43036
2.37792
2.4157
2.44644
2.48385
4.09626
5.08741
4.07402
4.43129
4.46467
4.78149
3.47779
3.42743
4.8081
3.50428
3.77005
5.26182
3.8802
3.66882
3.77979
3.60475
3.45029
4.073
4.48521
3.40568
4.41483
3.72156
3.56096
3.4185
3.96585
4.50247
4.51898
1.68908
1.75991
1.78434
1.66518
1.81451
7.9353
8.61213
8.42871
6.01757
10.3155
6.12283
11.6875
13.5024
14.1054
11.7435
15.3445
12.6392
11.0664
13.0848
7.57175
6.48707
6.73574
6.70527
6.6129
5.54153
3.55552
3.99068
6.21133
5.66929
3.34312
3.19767
6.45777
6.48333
3.63912
3.3161
3.56486
4.07378
4.15011
4.97793
6.43537
7.46869
6.72173
9.83673
13.2118
2.03715
6.64716
3.31079
4.38786
18.9728
31.9066
22.4685
22.5317
9.8791
4.73301
8.12529
20.6645
18.7019
6.95239
4.77361
5.04107
4.18175
4.02166
4.16324
3.83821
3.9532
4.45541
5.4922
5.16592
3.55954
4.28333
5.04124
4.3921
5.02243
4.01204
4.78307
4.63892
3.66473
3.69871
4.63305
3.4476
4.54318
4.93872
5.29358
4.90108
3.53059
3.41312
3.55026
3.60604
4.05074
4.00204
8.23579
9.93805
9.53984
9.20727
9.68748
9.17061
11.7945
8.51139
10.3202
10.479
6.66231
6.61889
6.78786
7.8265
9.64062
6.94913
10.2124
9.8484
6.26803
7.99886
4.69135
6.23326
3.65038
3.63724
3.62592
3.58432
3.58005
3.51411
3.59937
3.64294
3.60962
3.60837
3.55507
3.50407
3.49956
3.61572
3.59509
3.5423
3.56532
3.53964
3.45637
3.50627
5.72662
5.92278
7.03117
4.63181
5.61414
4.75763
7.17313
5.09491
5.5174
4.45545
4.51859
5.46306
4.67081
4.51282
4.87864
8.69901
9.11398
8.68384
10.1532
10.4801
8.63694
9.84009
9.38019
3.03403
3.14585
3.11166
3.1374
3.09895
3.09301
3.12949
3.20822
3.05442
3.05315
3.15472
3.07102
3.56467
3.66182
9.80392
5.3879
3.39829
4.03121
9.29886
6.92674
9.54134
10.0261
15.1607
7.48834
11.4914
17.3012
7.14154
4.45539
4.4404
4.87275
2.98396
3.03134
2.99821
3.01203
3.0751
3.02891
2.99001
3.15784
3.07638
3.06888
3.12138
3.17958
3.04493
3.03126
3.06077
3.16773
3.21876
3.09696
1.7484
1.75612
2.00817
2.09228
1.86825
2.01278
1.74517
1.76326
1.80685
2.13748
1.91648
1.78779
2.3194
1.81969
1.80857
1.94856
1.97476
1.79215
1.78892
2.04071
1.8274
1.78187
15.8209
14.444
16.322
18.9307
15.1673
18.0672
15.9107
14.3569
17.0402
18.8465
18.4796
17.0423
16.7727
15.6436
17.0028
15.2539
8.5676
8.27255
8.33351
9.45093
7.50187
6.97577
6.90643
6.37323
5.29083
5.33828
5.65029
5.64046
6.30217
5.14529
5.42437
5.77897
5.74793
6.11197
2.25639
2.57382
2.50786
2.25723
2.09786
2.03985
2.24518
2.30692
2.41523
2.28152
2.14782
2.15137
2.09453
2.06583
2.23685
2.11838
3.90737
3.87836
3.95598
3.89792
3.74373
3.89927
3.88202
3.89759
3.92074
3.90746
3.87174
3.92429
3.91062
3.88473
3.83182
3.82859
3.79685
3.79233
3.73978
3.75166
8.83539
8.63232
7.62313
6.66579
5.10391
7.20888
5.86287
6.33371
6.7439
7.94493
5.16159
4.89172
5.91785
6.14794
5.4133
5.74104
3.66695
3.66681
3.27537
3.35664
2.9702
3.3739
2.79117
3.22303
2.80966
2.60768
2.75559
2.6043
3.54599
3.02736
2.56351
3.23676
3.90041
2.09826
2.00447
3.43736
3.21519
2.95761
1.94361
1.86088
2.60985
3.10864
2.21364
2.10103
2.60417
2.81639
2.83173
2.83086
3.06462
3.11144
3.06575
3.12771
2.7982
2.87852
2.68383
2.75573
2.78642
2.73986
2.985
2.98034
2.71779
2.87328
2.9456
3.61021
3.80401
3.32179
3.1179
4.24323
3.85476
3.39745
3.40269
3.83401
3.12453
3.16844
3.06975
3.09139
3.24702
3.26696
3.11285
3.23203
3.13559
3.5831
3.24812
3.2031
3.22829
3.29321
3.30281
3.26137
3.19538
3.31681
3.29776
3.23729
3.31329
3.22842
3.24214
5.92319
5.62284
5.6862
5.82381
5.56388
5.74477
5.8443
5.76407
5.6783
5.69813
5.67596
5.5186
5.50243
5.50606
13.3011
13.6456
17.8938
17.482
18.3737
18.4897
13.2098
11.8364
15.4253
16.3626
13.5916
16.5856
14.4297
15.0467
1.81126
1.85366
1.89561
1.88554
2.20355
2.34572
2.21104
2.34504
1.87319
2.10098
2.07042
2.0627
2.19188
2.04347
1.92652
4.8496
5.57899
3.89567
2.40377
4.19799
5.57858
5.95159
3.61046
4.00431
3.64366
3.67854
4.02306
3.70834
3.77363
3.62236
3.49153
3.74068
5.59818
5.69751
4.44962
4.67671
4.05227
3.80922
4.4773
4.95972
3.78156
3.75116
4.43443
3.8948
3.72162
3.82324
3.54083
3.56061
3.59498
3.71622
3.58379
3.54311
3.58925
3.42707
2.8551
2.86636
3.03725
3.038
3.13884
3.63111
2.81812
2.82296
2.80194
3.21155
2.74689
2.69931
3.53565
3.37185
3.17324
2.87827
3.41293
2.59009
2.42552
3.58411
3.39989
3.39465
3.15733
3.63952
2.37218
3.03819
2.48616
3.44403
3.70517
3.1803
3.50349
3.84371
4.03757
3.45998
4.01022
3.80439
4.14259
3.93079
4.25298
4.22788
4.11382
3.43377
4.03071
3.19259
3.24078
3.92192
3.68673
3.57636
3.39669
4.08943
4.12657
4.18317
4.11871
3.98243
4.09865
4.00521
4.03821
4.05077
4.03174
3.96861
3.98327
3.9891
3.94527
4.0379
4.04474
3.98052
3.94698
3.95472
3.93395
6.86959
6.59191
5.31176
5.70161
7.31001
6.24247
5.52996
6.53345
4.92964
5.04731
5.01188
6.73861
7.84054
7.42803
7.49757
7.55176
7.66592
7.45404
8.01899
7.87151
7.3279
7.36656
7.04905
7.10301
7.03777
7.95655
7.65202
2.1975
2.26575
2.21746
2.20417
2.91403
2.89386
2.83981
2.65935
2.71374
2.35324
2.5357
2.11978
2.15101
2.4362
2.46428
2.31802
2.79438
2.78728
3.13133
2.95517
2.82448
3.6375
3.57499
4.11223
3.91872
3.38212
3.73348
3.50847
3.822
6.79983
6.10079
6.25693
5.89655
6.42395
7.73907
5.98513
6.07678
5.8997
6.16681
6.56366
7.97162
6.13222
14.4207
15.167
14.9612
12.526
13.4805
12.5938
11.8312
9.12573
9.87128
15.1603
14.5752
15.769
16.0247
9.93455
9.23802
13.5489
11.298
9.76868
11.176
13.7272
4.75172
4.73068
4.62397
4.70695
4.52862
4.4619
4.93845
4.58304
4.64768
4.57489
4.92984
4.64626
4.66086
4.90643
2.71007
2.06699
2.10515
2.10097
3.71177
5.51411
3.00171
2.77785
3.54079
3.98065
2.13291
2.37981
3.27856
2.80048
2.01453
3.20498
2.61251
2.17489
5.44775
5.68773
4.31452
4.38859
5.43717
5.56196
5.30004
4.42128
4.50022
4.68013
4.41614
4.4971
5.49888
5.73397
5.98758
5.46859
6.35189
5.46544
5.23424
5.01526
29.0028
6.6795
13.5916
6.82255
9.3006
2.5123
2.46051
2.68994
2.79473
2.32155
2.4248
2.3522
2.31157
2.92823
2.7172
2.64279
2.60421
2.30449
2.46175
11.9627
12.1439
12.7149
18.0982
15.5576
17.9032
6.00004
7.5218
11.5853
15.2975
5.97209
4.75917
4.8661
4.94619
4.87826
4.6187
4.63286
4.75277
4.73214
4.86144
5.00716
4.87125
6.95429
7.16325
8.35031
7.94402
6.43679
5.9898
6.21432
7.65172
6.6906
6.14268
6.41632
5.72918
7.52058
8.17841
7.45308
5.59505
5.71469
5.49765
5.43667
5.62276
5.50213
5.21914
5.32267
5.27342
5.27711
5.52284
5.78649
5.38914
5.49582
5.43223
5.3817
5.69092
5.82834
5.40121
5.62197
5.50802
7.66287
7.28108
7.28225
6.88699
6.67956
6.25171
7.56383
7.97277
7.16523
6.51606
5.91321
6.79276
5.75406
7.20121
5.77895
6.95077
6.37103
8.25794
8.20041
7.92448
7.80308
8.50391
8.9038
8.36984
9.43693
9.80974
8.78508
8.24096
9.13392
8.55386
7.4903
8.15982
9.08387
7.98468
8.27755
7.70475
8.35274
5.81624
5.95265
5.76123
5.85143
5.58764
5.7803
5.93851
5.68616
5.73476
5.89792
5.87997
5.90859
6.1182
6.13112
2.67883
3.01497
2.83322
2.9836
2.93619
2.8254
3.4334
2.80161
2.88408
2.99756
3.75556
2.98543
2.85225
3.88948
3.24509
3.79855
4.30246
2.86553
3.16673
3.53701
5.53456
3.75201
4.68173
3.27752
4.8096
1.81369
1.83215
1.9409
1.80864
1.87575
1.8388
1.80385
1.86966
1.89742
1.84577
1.78368
1.77526
1.81861
1.77049
1.82461
4.04876
4.11283
3.57327
3.31644
9.96839
11.1101
3.28687
11.6788
3.71217
3.94864
3.71258
6.53874
5.73544
10.5646
12.1912
8.25532
9.59898
8.50329
5.65988
5.9177
5.74071
5.61158
5.9504
6.56001
6.31397
6.11643
5.74448
5.58302
5.65006
6.29603
5.83586
6.51797
6.04529
6.68416
5.83175
5.76626
6.40693
5.93632
6.25495
4.59108
4.50123
4.52086
4.49853
4.51814
4.51834
4.59122
4.6126
4.54154
4.55382
4.61022
4.70414
4.81123
4.72846
4.68803
3.62065
3.68599
3.64135
3.62844
3.67771
3.74877
3.70758
3.60142
3.94667
3.76183
6.73749
6.88594
7.15223
6.9585
6.54175
7.07147
7.52553
7.31801
7.31275
6.84935
6.74299
6.99136
6.14745
6.37153
6.84574
6
5.92255
6.30361
6.08396
6.2164
6.47222
6.03841
6.97359
6.47593
7.71869
7.34599
6.6871
5.6911
5.89409
7.41658
7.68578
6.63069
2.79684
2.88279
2.92237
2.90933
2.36467
2.65556
2.35237
2.32482
2.27524
3.01497
3.11829
2.91434
2.38293
2.61624
3.17194
44.3245
15.0101
20.9667
10.039
17.8864
35.7626
31.7583
26.3137
12.9729
11.5525
10.039
23.6696
15.8544
14.7583
27.325
4.93003
4.78636
4.91675
4.86908
4.71247
4.83293
5.3538
4.94555
5.69816
5.08208
5.46451
5.0167
4.88487
5.10955
4.98277
4.80909
4.80311
4.86972
5.03478
4.67311
4.62879
4.96704
4.86586
4.95924
4.82808
4.80673
4.84139
4.68459
4.74228
17.403
13.5825
21.6069
39.4727
24.4316
19.9523
17.0925
33.1291
19.9052
3.10373
2.87879
3.18346
3.14518
2.8447
2.85493
3.30256
4.01021
3.8532
4.96683
4.93185
3.56319
3.77291
4.61315
3.30666
4.20094
4.25228
3.32924
59.7746
66.9537
81.1509
38.2178
64.7946
75.0793
105.354
101.136
45.0835
89.1252
60.307
61.1959
85.1128
88.1005
122.341
124.519
212.202
76.5921
92.2307
122.496
204.111
62.2214
65.919
62.0278
81.1258
63.6789
121.401
46.9806
46.1185
82.0665
62.5238
8.64454
5.59875
7.16778
17.0876
8.26199
25.873
4.81995
8.27958
14.6646
7.92948
9.50491
9.27972
10.5354
9.53839
10.0881
8.89146
8.39384
9.69188
10.6119
9.75195
10.591
10.4505
9.86017
10.2973
9.91257
14.961
15.0241
15.2546
13.9374
16.97
17.1599
14.4041
13.2157
17.1583
14.7827
15.3966
11.5995
12.6542
10.7819
13.7001
9.10858
14.9647
13.1006
8.56142
24.9353
23.4631
32.8652
28.7008
28.0427
26.8707
28.3126
34.7074
37.1001
35.9976
36.816
41.8277
45.217
8.35832
7.4682
12.8636
15.5077
7.93883
8.39068
14.7118
11.4487
7.49209
7.27904
11.8857
8.51076
8.07897
8.25577
9.66754
14.1127
16.1684
19.6203
15.4192
19.0684
16.3758
10.4459
22.8522
13.1764
22.527
23.2144
22.416
28.2467
24.9009
9.44583
8.58861
20.667
26.5345
28.2287
20.7123
3.34374
3.31125
3.22047
3.27756
3.29404
3.34082
3.37025
3.32083
3.17937
3.17632
3.32261
3.3722
3.27703
3.37439
3.35652
3.75704
3.57643
3.59142
3.25512
3.46374
3.61927
3.31784
7.35597
6.87593
7.1957
6.73993
7.13401
7.34151
7.81803
7.69051
7.34974
7.03775
7.12574
7.67505
7.11654
7.81577
7.50631
7.4121
7.17176
3.57105
3.76801
4.08796
4.07441
3.9154
3.70524
3.53853
3.58326
4.18961
4.41864
4.95362
4.88197
5.46656
3.236
3.83543
4.03861
3.98345
4.3475
3.90996
14.8889
12.8684
8.22622
8.50907
7.71552
7.51064
8.46289
10.1971
15.9535
16.2663
15.135