/*--------------------------------*- C++ -*----------------------------------*\
  =========                 |
  \\      /  F ield         | OpenFOAM: The Open Source CFD Toolbox
   \\    /   O peration     | Website:  https://openfoam.org
    \\  /    A nd           | Version:  10
     \\/     M anipulation  |
\*---------------------------------------------------------------------------*/
FoamFile
{
    format      ascii;
    class       volScalarField;
    location    "7";
    object      p;
}
// * * * * * * * * * * * * * * * * * * * * * * * * * * * * * * * * * * * * * //

dimensions      [0 2 -2 0 0 0 0];

internalField   nonuniform List<scalar> 
75457
(
-48.2433
-43.6361
-40.1924
-36.384
-30.9251
-33.596
-43.6646
-44.1314
-30.3888
-24.0644
-27.9393
-31.3907
-31.1915
-28.0816
-5.64459
-6.24013
-6.20248
-6.22744
-6.71605
-6.22173
-5.63342
-6.45045
-6.42688
-6.92313
-6.67775
-7.15685
-6.60891
-1.13812
-1.13515
-0.645099
-0.593095
-0.472894
-0.564939
-0.849262
-0.464866
-1.30206
-1.13837
-1.15613
-1.44412
-0.600014
-0.9611
-0.557627
-0.977967
-12.036
-11.7254
-10.9732
-11.1139
-11.6389
-6.46255
-7.15028
-7.53978
-6.88559
-6.94416
-7.12854
-7.60447
-7.6536
-7.32753
-7.59143
-6.8832
-7.1854
-6.97339
-6.79224
26.8603
27.1557
26.8891
27.253
27.526
27.5389
27.1601
27.2023
27.5147
27.2893
26.9632
27.2812
27.2642
26.9066
27.1498
-9.97504
-11.3662
-9.38701
-10.8552
-13.1966
-6.83934
-7.23384
-9.28336
-10.3066
-10.2757
-9.79974
-6.74042
-7.79001
-6.59087
-6.86138
-7.74868
-6.96513
-9.63893
-9.82637
-9.84843
-10.1965
-9.77972
-9.61961
-10.7964
-10.0288
28.2203
28.1107
28.3703
28.3874
28.2547
28.1062
28.0258
28.4751
28.4777
28.0927
28.1023
19.0747
19.7255
22.1472
21.7274
19.1356
20.6854
20.721
20.2039
20.5522
22.208
21.9953
22.5311
23.0631
21.8363
21.2857
20.1083
22.4868
21.503
10.746
10.7204
10.1568
11.0188
10.6285
12.1113
11.8036
11.6939
11.6949
5.01419
4.56759
5.11608
4.66743
4.11933
4.61161
4.6371
3.71076
-9.77332
-9.81287
-9.2231
-9.41815
-9.79772
-9.45898
-9.17751
-8.70055
-7.18258
-7.23938
-8.74207
-8.46651
-8.01927
-8.70229
-7.5979
13.2642
14.8277
15.0622
14.407
14.8198
11.173
12.5383
14.0679
13.0958
14.0277
11.3785
10.1037
10.6766
-12.071
-12.5354
-12.3985
-12.6021
-12.3602
-12.5227
-11.8517
-12.5384
-12.395
-12.6151
-12.596
-12.4403
-12.3577
-12.492
-11.1881
-9.81476
-12.3253
-9.65859
-10.0136
-11.5661
6.04949
6.75068
5.32373
6.29875
4.44945
5.19839
7.75491
7.37748
6.56207
3.75881
3.68084
-10.4191
-10.2651
-10.6754
-10.6283
-10.5831
-10.5096
-10.3465
-10.2405
-9.84154
-10.6609
-10.4181
-10.1922
-10.5486
-10.1624
1.95189
1.0908
1.44616
-0.160655
0.356848
0.970052
0.708541
2.00026
1.58967
0.800112
0.149898
-0.397056
1.71617
0.127754
-9.93027
-10.0071
-9.69975
-9.59802
-9.90948
-9.85109
-9.98514
-9.92946
-10.1892
-9.6174
-9.91201
-9.34049
-9.9918
-10.1574
-9.85406
-9.74956
-9.93684
-12.4174
-12.1737
-12.1709
-12.0862
-13.3919
-11.9077
-12.0063
-11.3578
-12.0074
-12.6219
-11.4895
-12.3144
-10.8597
-10.8594
-10.8242
-10.9104
-10.4981
-10.4379
-10.7392
-10.5587
-10.2759
-10.5775
-10.6309
-10.3695
-10.4673
-7.32614
-7.19249
-7.38124
-7.03519
-7.05969
-6.91173
-6.76509
-6.73225
-6.74044
-7.03075
-7.32473
-7.18459
-6.65468
-6.96221
-6.97248
-0.354309
-0.382717
-0.192535
-0.326732
-0.162178
-0.255294
-0.542219
-0.484581
-0.211538
0.139125
1.26247
0.264974
0.559113
0.879558
2.20585
0.579376
0.318091
1.18323
0.053442
0.417869
-0.19383
0.279032
-4.59144
-5.19132
-4.08623
-4.27096
-4.78604
-5.13359
-5.44358
-4.59099
-5.03098
-5.52023
-5.27428
-9.05101
-9.16639
-9.32033
-9.2913
-9.2218
-8.98846
-9.01626
-9.39422
-9.61111
-9.42368
-9.6539
-8.82138
-9.10876
-9.21699
-9.38959
-9.1706
-9.28484
-13.4177
-11.7058
-11.0402
-13.8103
-17.602
-17.4442
-16.8432
-16.1309
-15.6379
-14.8406
-16.8736
-4.46283
-5.00778
-5.70167
-5.56765
-5.13346
-5.30403
-4.74262
-5.65078
-5.62983
-5.10903
-5.05144
-0.251966
-0.214014
-0.415927
-0.517377
-0.194709
-0.163352
-0.474702
-0.209364
-0.530474
-0.631206
-0.598866
-0.249559
-0.489433
-0.943561
-0.854915
-6.23539
-5.00683
-7.56804
-6.31294
-6.12209
-9.53196
-9.99504
-9.5007
-9.87617
-9.9982
-9.52263
-10.4291
45.9174
50.6763
39.3027
41.9852
44.7207
46.6681
46.4843
49.291
41.6435
46.0972
44.5249
45.4609
41.3204
45.805
40.3191
41.6053
43.536
38.6874
30.6067
30.1478
30.7869
31.4562
32.3743
33.2701
30.8685
31.5461
33.8684
37.2073
34.0073
34.3469
36.1355
21.6941
18.938
16.5937
18.2587
22.5525
19.2686
17.8676
19.3553
18.9927
17.0821
24.2682
24.2948
17.7331
19.2635
16.6168
22.6379
24.8021
24.9798
21.1118
21.0339
21.6478
22.8779
-11.6209
-12.1091
-12.3051
-12.2887
-12.3911
-11.7164
-11.8068
-11.9657
-12.153
-11.7167
-12.1783
-11.733
-11.8763
-11.8358
-11.9505
-11.9214
-39.8484
-44.535
-26.8831
-32.9992
-25.0864
-33.1489
-31.0796
-28.5542
-24.57
-30.7544
-49.8924
-44.034
-29.2723
-39.6675
-26.0358
-26.9209
-0.679
-0.830568
-0.669706
0.155486
0.527337
1.12477
-1.02371
-1.35267
0.29062
0.263343
1.13002
0.786445
0.519026
0.444349
0.277421
-0.364608
-1.09065
-0.288137
29.8224
34.1757
32.796
29.1178
30.4592
33.2834
36.701
35.7178
30.9325
36.8075
38.5793
36.7472
32.9231
29.6761
30.4669
31.2907
22.9902
22.3717
22.8811
22.6602
21.8699
23.5725
24.1598
23.5696
22.9283
23.9182
23.3536
22.5448
23.3842
21.826
22.4907
23.9991
24.48
9.46258
9.28662
8.99457
9.32621
9.3135
9.40093
9.57166
9.5753
9.54153
9.42464
9.11886
9.19243
9.60784
9.31852
9.49069
8.74447
8.7995
-6.20765
-7.34073
-9.16777
-7.95104
-7.05867
-7.05157
-6.43582
-6.48328
-7.79074
-7.49313
-8.905
-9.15432
-7.71812
-6.99409
-9.13859
-7.98342
-7.72481
-8.63408
-5.44481
-5.7034
-5.28983
-5.40239
-4.89102
-4.91297
-5.01528
-5.00004
-4.42017
-4.71372
-4.90517
-4.40388
-4.23851
-4.71111
-8.5483
-7.74406
-8.87018
-9.63405
-9.76076
-9.29872
-8.91902
-8.57821
-8.45866
-10.0276
-9.74212
-9.68104
-8.80196
-8.20595
-8.62419
-9.43343
-9.46893
-9.73906
17.1755
12.9338
13.7612
20.7217
17.0318
11.1175
13.9398
14.4326
10.8477
19.2462
14.2214
11.3927
-10.7462
-10.4995
-10.0816
-9.9833
-10.3393
-10.3524
-8.62891
-9.18727
-10.3518
-10.2575
-10.2496
-9.29405
-9.30953
-10.1224
-10.1011
-9.96864
-6.21083
-6.74245
-5.65253
-6.06909
-7.29892
-7.40405
-7.05296
-5.82716
-5.75615
-5.73599
-5.59883
-6.91961
-7.37602
-5.89118
-5.49483
-6.63189
1.9373
1.194
0.529655
3.7263
4.63463
2.18719
2.8706
-0.32391
1.27648
1.9565
3.56493
2.46586
3.49744
4.29777
4.03569
0.960076
1.06663
2.33449
0.470431
-3.75445
-2.85681
-3.4727
-5.4708
-4.52288
-3.31532
-5.37357
-4.96341
-3.67715
-4.09516
-3.95452
-5.24069
-3.91913
-3.61669
-1.32708
-1.18974
-1.80518
-2.04789
-1.67503
-2.01027
-1.87918
-1.659
-2.08361
-1.6698
-1.94563
-1.83833
-2.39543
-1.67591
-1.78807
-1.63826
-1.4882
-2.04507
-6.44966
-7.03642
-6.13914
-4.82774
-5.29916
-8.92369
-6.41418
-6.12078
-6.12752
-7.19742
-8.64244
-10.8554
-11.2372
-11.6682
-11.0834
-11.466
-12.6164
-11.2475
-12.6733
-9.50198
-9.55781
-12.8958
-14.0128
-13.0758
-12.5079
-11.8373
-13.8212
-11.4328
-12.3558
-12.2853
-12.651
-11.0884
-12.1881
-12.2701
-11.977
-12.1882
-11.8851
-12.1065
-12.1306
-11.9903
-11.7866
-11.8544
-12.1033
-11.8772
-12.0118
-11.8566
-11.9982
-11.9438
-11.9328
-9.10022
-9.45449
-10.9011
-11.4322
-9.75522
-10.176
-11.1913
-11.4461
-10.0541
-11.0348
-10.1914
-4.71727
-4.95851
-3.73451
-2.91304
-3.51547
-2.85961
-3.16564
-2.1666
-3.30135
-3.13386
-3.38784
-3.04997
-2.79162
-4.00265
-3.6984
-3.61586
-4.05556
-3.89389
-3.22856
-3.80935
-3.53119
-4.05336
-4.02511
-3.41691
-3.4148
-3.71115
-3.03268
-3.62258
-3.34043
-3.02361
-3.42264
-2.98203
-3.38781
-3.58161
-3.05015
-8.53473
-8.6803
-8.63607
-8.51769
-8.07134
-7.57211
-8.59152
-7.21298
-8.09722
-6.75516
-7.37756
-7.84486
-8.29823
-7.47412
-7.56221
-8.94226
-7.93686
-7.05731
-7.03307
-6.84577
-8.25662
-8.39517
-8.75216
-8.73113
-7.79185
-7.94964
-9.04432
-8.74642
-8.4137
-7.44986
-7.75471
-7.70259
-7.39273
-7.97158
-7.96924
-8.37202
-7.21668
-7.46483
-8.05817
-8.39284
-7.33058
-7.59637
-8.20579
-9.32938
-7.88983
-8.66613
-8.2156
-9.66479
-7.55502
-7.41458
-7.47314
-8.12364
-9.15599
-8.80782
-9.10901
-7.88334
-7.59235
-8.35602
-8.21328
-8.20696
-7.79479
-9.16418
-8.37299
-9.20494
-10.1983
-9.61896
-9.27478
-8.7792
-8.79004
-9.7535
-9.80728
-10.5229
-9.31897
17.9269
18.6149
19.562
18.3327
19.1762
18.0663
19.1297
17.8656
18.3844
19.4417
-11.6577
-11.5226
-11.0804
-11.1574
-11.9014
-11.7201
-11.2484
-11.3654
-11.8304
-11.026
-11.486
-11.1701
-11.1973
-11.7719
-11.217
-11.5064
-11.6796
-12.4508
-11.801
-12.7631
-12.5032
-12.3599
-12.9697
-11.7438
-12.5309
-11.7704
-11.4908
-12.4091
-12.7795
-11.5945
-12.6346
-12.5377
-12.3515
-11.9754
-12.9333
-12.3516
-12.3479
8.90453
9.31991
10.0556
9.42819
9.08486
10.3018
6.77793
8.32426
8.55207
8.27921
7.58362
9.72761
9.13626
9.7244
8.8322
8.40774
-16.6768
-17.7393
-16.5007
-16.0369
-16.2372
-13.8642
-15.3739
-16.4473
-16.2083
-16.5727
-12.9189
-14.1628
-16.0017
-13.629
-14.5603
-12.6279
-12.2506
-12.2981
-13.3461
-13.3977
-13.9673
-12.3202
-11.8239
-11.7049
-12.6789
8.13831
7.08773
6.75473
6.8735
6.80627
5.39272
5.08281
4.51514
4.6142
5.13503
5.21007
4.31594
5.89901
5.09983
6.76104
6.8795
5.03204
6.09265
5.66881
-11.0361
-11.0011
-11.8937
-11.3259
-12.6971
-11.2202
-10.7467
-11.5636
-11.5985
-11.1036
-11.0003
-11.8507
-12.0195
-12.5292
-11.7547
-11.4154
-11.1672
-12.1537
-11.7464
-7.9315
-8.97269
-8.75849
-8.3771
-8.27882
-9.04672
-8.10216
-7.63095
-8.96145
-9.16216
-9.70834
-9.04895
-9.53778
-9.34447
-9.83282
-9.7779
16.6292
17.1621
16.3557
16.2138
17.2693
18.2385
18.312
17.2359
17.1158
17.9746
18.192
17.213
18.3141
18.7928
19.553
18.9332
-14.279
-16.6959
-13.243
-13.8678
-15.7582
-18.1319
-10.1968
-11.0909
-12.9608
-15.0627
-12.6942
-13.6137
-15.3017
-17.9434
-16.2516
-11.7352
-15.2719
-13.2154
-15.3041
-17.9538
54.7792
48.7792
44.5503
44.2229
53.2604
54.5222
48.015
52.8298
47.0225
49.0373
46.6139
47.14
43.9115
43.775
49.5045
17.7897
16.4289
21.1064
22.6834
20.5197
17.535
22.9662
19.5235
21.9487
25.2378
24.1219
25.3559
27.1588
24.8929
-16.8446
-17.5838
-17.1454
-17.8868
-15.9904
-16.2696
-14.6673
-13.541
-15.8669
-15.8052
-14.0172
-13.5522
-16.2779
-14.5766
-14.2687
-14.873
-7.31359
-6.95828
-7.08984
-7.21914
-6.87885
-7.29032
-6.99933
-7.3693
-7.54704
-6.73586
-6.73052
-6.73533
-7.42257
-7.28647
-6.74821
-7.07446
-6.98103
-7.41448
-7.15774
-12.5068
-12.4557
-12.1576
-12.9912
-13.0442
-12.9939
-12.1691
-13.0456
-12.8642
-11.4417
-12.0652
-12.0161
-12.2524
-12.0142
-13.2322
-12.9906
-11.6588
-12.1006
-11.9412
-11.9536
-11.6677
-11.7266
-12.1947
-11.6286
-11.7524
26.3969
25.5144
25.5535
26.0613
26.2505
25.7983
25.5643
25.6253
26.348
26.1146
26.1948
25.9152
26.0753
25.8298
26.1789
26.2353
26.2109
25.9838
25.6181
26.3153
-9.24207
-10.0398
-9.18362
-9.68969
-9.17985
-8.86546
-9.0202
-9.78204
-8.80196
-9.10991
-9.31699
-9.49486
-6.16189
-6.21335
-5.67189
-5.47164
-5.2441
-6.20853
-6.20908
-6.37634
-6.02164
-5.48087
-5.42178
-5.73406
-5.89223
-5.39759
-5.61082
-5.62844
-5.78223
-5.63651
-3.66962
-3.47356
-3.76784
-3.45289
-3.61282
-4.04688
-4.11844
-4.28677
-4.34383
-3.52763
-4.01526
-3.65607
-4.38686
-4.24072
-3.84639
-3.63901
-4.40393
-4.04502
-3.57815
-2.76093
-2.90589
-3.10104
-2.20813
-2.72596
-2.4266
-2.25879
-3.32001
-2.78337
-3.34328
-3.25613
-2.37034
-2.32278
-2.64221
-3.43609
-3.4178
-7.38631
-7.06158
-7.34588
-7.32671
-6.75092
-6.62062
-6.79473
-7.74582
-7.66965
-11.8681
-11.6532
-11.6832
-11.8801
-12.0451
-12.0346
-11.8404
-12.1099
-11.7955
-11.7324
-12.0255
-11.828
-5.75285
-5.51439
-5.76603
-5.73664
-5.73188
-5.91184
-5.87167
-6.00884
-6.15714
-5.89355
-6.44651
-6.28168
-6.27806
-6.39847
-6.22524
-6.34946
26.4127
26.5682
26.3829
26.0966
25.6935
25.6765
25.2847
25.2328
25.5414
26.115
-9.08075
-8.84989
-9.10847
-8.86468
-9.19499
-9.06684
-9.33999
-9.29878
-9.44804
-9.45486
-9.22598
-9.03547
-9.26743
-9.61942
-9.54673
-9.32233
-9.27137
-9.22147
-7.02422
-7.40338
-6.93986
-7.08885
-7.03614
-6.97696
-7.24422
-6.97732
-7.19356
-7.7101
-7.42866
-7.49125
-7.22999
-7.45197
-6.92392
-7.10015
-7.32337
-7.07899
5.99591
5.37583
4.82491
5.77084
3.90258
3.39976
6.3524
5.84613
4.57954
6.01977
5.03879
4.15363
4.867
4.89196
26.8287
26.7323
26.5901
26.424
26.8838
26.4497
26.2659
26.3016
26.6212
26.4268
26.6297
26.7564
26.2982
26.2707
26.159
26.1995
26.5921
26.3832
26.5443
26.2993
40.2376
38.7412
32.1196
35.2931
24.5667
28.912
14.3816
30.0105
30.322
27.6533
33.3663
23.3022
34.7942
39.8176
35.8294
43.2771
25.1478
36.3517
31.8108
-15.3895
-16.5997
-12.0505
-11.2059
-16.2897
-19.3332
-19.3162
-22.1447
-11.997
-12.0247
-25.0705
-21.5933
-14.8451
-18.4266
-21.1466
-15.2499
-15.8691
-22.6296
-18.4982
-19.2836
-1.44457
-2.11981
-1.85516
-2.17643
-2.46012
-1.77944
-3.10337
-2.22029
-2.46435
-2.40356
-2.08729
-2.16059
-2.74616
-1.94515
-3.05677
-2.96255
-2.89447
-2.8016
-2.12144
-12.5195
-13.6573
-15.9673
-16.2545
-15.6986
-14.8935
-12.7126
-13.6734
-15.5131
-11.5004
-13.2868
-13.2611
-13.3302
-14.6756
-14.8814
-14.6939
29.0525
29.0037
28.8695
28.9461
29.2135
29.2292
29.1085
29.134
28.9459
28.8152
29.3216
29.098
29.265
29.2629
28.8965
28.8132
28.9756
29.141
29.2724
28.8774
-2.70999
-2.8502
-2.28984
-1.87488
-4.76905
-4.85072
-5.26402
-6.11047
-4.05607
-2.68348
-2.32187
-4.76932
-5.10719
-5.62806
-6.34664
-6.23963
-3.9563
-5.74168
-5.50255
-4.45606
28.984
28.8376
28.9192
28.9616
28.951
28.988
28.9138
29.0355
29.1045
29.1239
29.1957
28.8878
29.049
29.0434
29.1413
29.1266
29.0005
-6.45287
-6.35884
-6.546
-6.82203
-6.71337
-6.38818
-6.13473
-6.56698
-6.68792
-6.9237
-6.22188
-5.77442
26.869
26.6925
27.2511
27.259
27.0036
26.9587
26.5921
26.8056
27.0576
27.2101
27.2535
26.8831
26.6868
26.8075
26.6191
26.8096
26.6012
26.8787
26.9448
26.6015
26.8506
20.1381
19.6966
19.7878
20.2118
20.277
19.4391
19.8425
21.5031
21.6877
21.4825
20.7579
20.4135
20.0198
19.9348
20.0009
20.6683
20.5878
20.5563
6.57225
6.83044
6.90257
6.49164
6.75456
7.44497
7.08479
7.11685
6.87929
8.01522
7.83693
8.08482
7.91939
7.00314
6.73547
47.5693
42.5071
36.7267
38.169
44.5029
42.4626
53.7943
39.3147
46.2183
41.1403
53.4458
53.1717
48.9142
42.2889
-5.27136
-5.03652
-5.34425
-5.70098
-5.78287
-5.81189
-5.33328
-5.50488
-5.41001
-5.30565
-5.7887
-5.76386
-5.47816
-4.94819
-5.05045
-5.35638
23.1324
21.1011
22.7059
20.931
20.6128
20.9871
21.3228
21.3798
22.2094
22.6195
25.0301
24.5262
23.5797
25.8211
26.4069
23.8588
24.8965
28.1225
28.0703
27.6567
27.7648
27.8598
27.9285
28.1466
28.1899
27.6145
27.7398
28.0973
28.1159
28.0764
27.9409
27.9009
28.0678
27.862
-21.2004
-18.704
-18.4137
-22.926
-18.1844
-23.5186
-30.3831
-17.7699
-21.0751
-21.1422
-20.1981
-22.2187
-24.1029
-18.9719
-17.3745
-17.0705
-13.3352
-15.0783
14.7181
14.389
16.0317
15.7133
14.9578
13.679
14.055
15.6319
16.1588
15.7527
15.4823
15.8111
14.0747
13.8279
13.1998
15.062
13.8888
14.4981
13.4869
15.0093
14.3072
14.0709
-7.43506
-7.69136
-7.45926
-7.47943
-6.35539
-6.45065
-4.92064
-5.06556
-6.60337
-7.16961
-7.09299
-6.55359
-5.20603
-5.47722
-5.10023
-5.21173
-5.19975
-5.78645
-5.00148
-5.1199
-5.62244
-5.40596
-5.17143
-5.54391
-5.82854
-5.64404
-5.72838
-4.89167
-4.91547
-4.80061
-5.00515
-4.9776
-5.75568
-5.73959
-5.67598
-5.32775
-4.90303
-5.41223
-6.6261
-6.5907
-6.66011
-6.78778
-7.0231
-7.11863
-6.58639
-7.00958
-6.46051
-6.72177
-6.38771
-6.97729
-6.07099
-6.39328
-6.17257
-7.05053
-6.58685
-6.22154
-7.00287
-6.45718
-6.25928
-5.62199
-7.81008
-5.31566
-3.15169
-8.17644
-8.09097
-0.514776
-1.91312
0.980377
-4.12933
-0.637614
-4.34236
-3.28842
-6.56278
-6.15402
-3.11905
-2.41592
2.11404
-1.07605
1.24957
3.21396
1.69841
1.04212
1.49864
2.04421
3.62564
3.49302
2.57195
1.85608
1.07645
1.42117
1.50587
1.21337
2.22405
2.07112
3.17052
1.97415
1.24473
1.8639
-10.1
-9.66487
-9.86215
-9.91743
-10.0463
-10.0833
-10.2945
-10.5865
-10.0994
-10.6675
-10.1851
-9.99382
-10.0389
-9.96521
-10.0375
-9.98686
-10.0349
-6.85681
-6.9946
-8.25684
-7.83941
-7.6177
-7.86706
-8.02792
-7.75831
-7.21664
-7.9094
-7.4174
-7.93433
-7.61263
-7.70453
-4.4951
-5.11095
-5.25548
-5.61584
-5.04194
-5.42292
-4.46825
-5.51672
-5.64949
-5.96428
-6.03397
-4.37558
-5.37232
-5.62766
-5.53123
-4.72239
-5.54103
-0.0926566
-0.281318
-0.273651
-0.0235899
-0.159498
-0.249542
-0.229029
-0.141571
-0.198167
-0.25505
-0.459325
-0.601602
-0.801523
-0.597082
-0.193187
-0.36524
-0.658177
-0.65253
-0.602752
-0.688118
-0.335658
-0.170787
-0.699438
-0.0955518
-0.343382
-0.293811
-0.507864
-0.633694
-0.310216
-0.521572
-0.402219
-0.129168
-0.155898
-0.41734
-0.615756
-0.295589
-0.326856
-0.628695
-0.178941
-0.354677
-16.2075
-17.1655
-19.8349
-20.113
-19.6979
-20.3775
-17.7266
-18.4673
-18.7077
-15.6062
-17.0197
-17.7834
-20.3248
-19.0539
-20.1912
-19.0335
-18.3016
-2.08606
-2.07911
-2.47269
-1.20177
-1.83435
-2.69577
-2.96162
-1.13222
-1.41661
-2.36483
-10.7338
-10.6148
-10.9528
-11.2161
-10.3423
-10.2761
-10.8092
-11.1473
-11.1489
-10.9755
-10.6257
-10.3414
-10.3678
-10.4292
-10.3217
-10.707
-10.4909
-10.6571
-9.3267
-9.31069
-9.41312
-9.07838
-9.49907
-9.1587
-9.23549
-9.09708
-8.80869
-8.89901
-9.51152
-9.61024
-9.28905
-0.725156
-0.457343
-0.886503
-0.587104
-0.930521
-1.20399
-0.946609
-0.353117
-0.228585
-0.675426
-1.08344
-0.986055
-0.352905
-0.352264
-10.1228
-10.0958
-10.4015
-10.2952
-10.0525
-10.1743
-10.3942
-10.167
-10.1463
-10.2793
-10.2174
-10.4916
-10.2912
-10.0757
-10.7081
-25.3112
-23.8559
-23.2001
-23.3512
-21.5521
-21.2721
-26.8517
-25.7356
-25.2367
-26.3298
-27.0281
-26.2904
-23.1569
-21.6924
-22.9902
-24.219
-23.673
-25.5413
28.1092
28.1044
28.3503
27.714
27.8245
27.7832
27.891
27.7162
28.026
28.0063
-10.299
-10.3441
-10.3592
-10.5695
-10.262
-10.5506
-10.2326
-10.3061
-10.1175
-10.2029
-10.2345
-10.5071
-10.5701
-10.3531
-10.5883
-10.2161
-10.3519
-10.3813
-10.1917
-10.3459
-10.4065
-10.3591
-4.98521
-5.17982
-5.18173
-5.24326
-4.77833
-4.40167
-5.09434
-5.10928
-4.58105
-4.62261
-4.2083
-4.16283
-4.73311
-4.57407
-4.2239
-4.13274
-4.39467
-4.70088
29.7077
30.6854
31.9211
30.6153
29.2467
31.6925
29.8449
30.7888
27.1232
29.0449
30.5963
27.7924
28.0976
26.8371
25.5856
28.7071
26.5461
25.4011
26.466
30.5637
28.3282
27.4429
24.7715
30.0853
30.9584
32.3705
31.8569
36.1083
35.2674
32.6598
35.14
28.5586
27.5758
36.0739
36.9889
33.7906
36.1871
28.8053
28.9229
28.971
28.7778
28.896
28.7816
28.9666
28.8964
28.7368
28.8857
28.6754
28.7074
28.9477
28.8747
28.8838
28.9566
28.38
24.1127
23.6686
25.9462
27.0932
28.9838
27.0712
27.1821
23.4246
22.7225
27.2766
25.2358
26.7317
23.9064
25.9315
23.8012
23.5268
24.645
25.1993
24.2476
24.9259
25.9479
25.7566
25.1193
24.3531
25.9986
26.3563
25.7981
21.131
20.7631
22.9188
24.3742
12.5705
11.6203
21.5331
21.474
12.2554
14.4986
16.9412
17.0797
18.5623
16.0553
13.8316
11.6595
27.0059
26.1792
26.5361
27.0539
26.2536
27.5716
27.1667
26.3686
26.3761
29.1886
28.7637
28.4293
27.8822
26.7855
27.9191
27.3536
28.3851
27.7747
27.1383
28.6755
7.6042
9.31453
4.14541
1.26275
2.53718
5.17803
12.3608
4.26286
8.14264
8.09366
1.87761
6.86209
7.54946
4.51346
7.46688
14.0186
14.1288
12.5129
10.5331
8.87662
17.9264
15.0622
14.9883
12.1525
16.2022
16.3021
16.2533
13.5103
12.1434
13.2427
13.394
14.092
14.4941
27.913
27.972
27.7467
27.6425
28.3576
28.3387
27.842
27.6787
28.5249
28.52
27.9126
28.2153
28.4999
28.4595
28.3412
-12.4549
-12.2278
-12.9023
-12.895
-13.4472
-12.5645
-12.5861
-14.2268
-13.845
30.7803
29.9079
28.9176
28.8806
29.5896
29.0233
31.2305
28.675
32.4556
31.0366
28.8361
30.6865
31.3039
31.6244
32.1142
27.9404
28.2456
30.0081
32.1288
30.8042
28.4089
29.2751
2.41731
3.12
2.59775
0.511686
1.56979
2.59057
-0.447554
0.882498
1.15979
-0.862917
0.272497
-1.91937
-0.909845
-1.95335
-2.4147
-1.7529
-0.546771
1.08802
-2.74202
-0.0494058
26.7489
25.1282
29.7321
25.3962
27.219
33.8543
31.1794
27.3145
31.1066
26.4229
28.8002
34.5965
32.4213
33.2043
36.678
30.0474
29.5171
27.7393
32.2193
26.1526
29.3388
27.1506
30.8048
35.3162
36.2245
34.2061
-9.47696
-10.3567
-9.7269
-9.40636
-9.75972
-10.2081
-10.0105
-9.68513
-10.6306
-9.56844
-9.71291
-10.1345
-9.44956
-9.41816
-9.30953
-9.51387
-9.53396
-10.1714
-9.84745
-9.28667
-9.37485
-9.34554
-9.24767
-9.51198
-9.33109
-9.52995
-7.93031
-7.64192
-8.33519
-8.77887
-7.85849
-8.05839
-7.82323
-6.87648
-8.68835
-6.15547
-8.4815
-7.4459
-6.93742
-7.56862
-8.39931
-8.45737
-7.99643
-7.66224
9.39354
8.91806
5.6006
7.40047
6.1856
4.31615
1.0062
5.43072
5.70318
3.38188
-1.27872
2.24124
3.72453
24.0363
24.8349
25.1738
23.8291
25.5048
25.2747
25.6862
24.8455
24.9579
23.9873
24.1279
26.0269
25.4219
-13.6157
-13.5285
-14.3792
-13.885
-13.932
-14.5396
-15.945
-15.3087
-16.9585
-14.6503
-14.9151
-14.4359
-16.003
-12.3879
-10.9069
-10.7085
-11.1708
-11.4316
-11.9619
-11.9055
-12.1876
-10.8
-10.8364
-11.4371
-10.8606
-10.4203
-10.8671
-10.8529
-9.81947
-9.50786
-9.65591
-9.67971
-9.64263
-9.58816
-9.46734
-9.50385
-9.26704
-9.56173
-9.49988
-9.73527
-9.59337
-9.64192
-9.28699
-9.36901
-10.8085
-10.4671
-10.5915
-10.4321
-10.4697
-10.3425
-10.4313
-10.7663
-10.5073
-10.3465
-10.5382
-10.5123
-10.5275
-11.0431
-6.00698
-7.77961
-8.13998
-6.02033
-7.52478
-8.09059
-8.4202
-5.77286
-5.84728
-6.69864
-6.54951
21.5282
23.0527
22.1619
23.3271
22.582
23.431
22.5572
21.8199
23.0385
22.1312
23.4096
21.3098
22.8483
30.9733
33.873
36.3395
44.6158
42.5058
30.98
48.2435
47.3849
34.4872
40.0236
32.5744
34.6808
43.2947
47.2374
49.9611
38.0346
39.8646
36.8298
46.4479
44.4396
42.565
39.6365
31.9576
32.0922
31.8473
30.638
30.4494
29.1524
29.624
29.8864
29.3809
28.2745
28.4017
18.6226
17.9513
17.7413
17.2935
19.7102
19.21
17.6275
18.9774
18.2279
17.356
16.5478
16.7638
18.4131
19.8598
20.0464
17.3866
16.8316
18.983
16.2913
30.3327
30.6166
30.5143
30.5135
31.2523
31.0779
30.8694
30.7153
30.7095
31.1148
31.8608
31.5852
32.0132
-12.8638
-8.52483
-5.75063
-9.64398
-7.87982
-3.1794
-3.30228
-3.29692
-2.09276
-6.25525
-3.94261
-12.7958
-16.1524
-6.62182
-3.52968
-10.1228
-7.32747
-16.1495
-10.8024
-16.743
-9.71689
-9.51443
-9.34119
-9.54273
-9.57475
-9.20462
-9.38826
-9.47936
-9.81964
-9.49384
-9.41444
-9.81708
-9.58455
-9.42024
-9.49008
-9.47168
-9.42288
-9.09611
-9.50414
-10.3538
-11.4107
-9.84379
-9.51441
-9.45452
-11.0067
-10.0895
-10.2386
-9.48299
-10.035
-11.1564
-12.8888
-10.3965
-10.1233
-9.23394
-7.56192
-9.33708
-8.7548
-7.86376
-9.37963
-10.6966
-8.62615
-7.1626
-8.20867
-7.33957
-8.90124
-7.83162
-3.62944
-4.13536
-4.40846
-4.31124
-4.69843
-11.4244
-13.1692
-12.3177
-13.6514
-17.961
-11.7511
-15.3368
-17.2659
-16.941
-22.1744
-23.1155
-19.1599
-19.5791
-19.8773
-15.6559
-2.23161
-2.55137
-2.78494
-3.77711
-3.02598
-2.88716
-3.27493
-2.43522
-3.20338
-1.63401
-1.64405
-2.88717
-3.0729
-2.76203
-0.667662
-1.81046
-2.65215
-1.92783
12.1819
9.95645
5.05737
12.6922
-2.29532
-13.3276
12.2501
1.75573
11.5105
5.24609
5.99884
-26.1386
-20.423
-39.7231
-1.18999
-1.84912
-4.27206
-16.436
-7.77423
-1.12317
-19.8692
-19.4285
-19.5333
-18.0097
-18.3923
-17.2897
-17.1367
-16.9382
-18.341
-18.5203
-16.5803
-17.214
-17.7162
-16.8192
-13.19
-11.5888
-12.3472
-14.0111
-9.88879
-10.6083
-11.905
-13.9619
-11.6649
-11.3077
-13.9554
-12.8059
-9.14285
-9.90768
-9.03853
-9.62159
-9.66424
-9.96822
-7.45622
-8.46673
-7.42358
-10.1063
-13.5754
-9.03826
-15.5256
-13.8496
-15.6734
-15.2228
-5.07137
-5.53895
-5.47868
-7.4989
-9.66112
-10.3643
-11.8425
-12.2423
-6.49186
-9.50404
-6.89168
-7.02099
-5.85659
-7.57884
-7.68369
-7.09547
-4.23924
-4.24787
-5.36377
-2.37988
-2.44617
-5.56025
-7.67142
-4.6258
-3.53973
-2.32702
-1.81861
-6.10312
-3.6047
-3.94958
-5.41914
-4.11941
11.0508
11.653
8.74226
9.08139
11.7781
9.8647
9.41273
10.067
10.6006
10.0141
8.98099
9.53487
9.6633
8.73045
11.5557
-14.1997
-10.6328
-11.9023
-13.5056
-15.0778
-13.7147
-10.6929
-14.1588
-7.89965
-7.52474
-8.19451
-8.13356
-8.22051
-8.51597
-8.48056
-7.81479
-8.50436
-8.57197
-8.04442
-8.75605
-9.57673
-9.1721
-7.98881
-8.07288
-9.25052
-9.10583
-9.25111
-8.36058
-8.99626
-7.90888
-8.40203
-7.51943
-8.80991
-8.42039
-8.94675
-8.22152
-7.95432
-8.56221
-10.6862
-10.4358
-10.9521
-10.7058
-10.5235
-10.9438
-11.5391
-12.8074
-12.1651
-11.5357
-11.1851
-11.8629
-11.7945
-12.5977
-12.1248
-11.3443
-11.7773
-12.0624
-1.85869
-1.57408
-1.57643
-1.94593
-1.87833
-2.12349
-1.62775
-1.67043
-2.04453
-2.15499
-1.84132
-2.3393
-2.8186
-2.91512
-1.75211
-2.28906
-2.17649
-1.8769
-2.80126
-2.65566
-2.1259
-2.01512
31.2835
30.9424
31.416
31.0379
30.4764
31.1246
31.6425
30.5723
30.7008
30.5843
29.9959
29.7158
29.9283
30.9005
30.4101
30.1922
-14.3555
-13.8368
-12.6148
-14.5944
-16.0891
-14.5271
-12.0463
-12.201
-12.3963
-15.612
-13.7727
-12.7504
-13.9784
-12.432
-16.0193
-14.4016
-15.5634
-17.1843
-6.41057
-6.43531
-5.74285
-5.99585
-6.12951
-6.54186
-6.41567
-5.47734
-5.64398
-5.34311
-6.63349
-6.80013
-6.38295
-6.67265
-5.84547
-6.51725
6.02219
6.74118
8.27825
6.73926
5.51202
7.489
5.90311
7.89415
8.39562
6.51355
7.12409
7.01259
6.75744
8.2348
6.25731
4.64414
6.04329
4.63116
5.05465
6.00761
4.56452
2.81037
-0.0717032
-0.091717
-1.67946
-1.32536
2.46011
-2.52353
7.75049
6.71099
-4.31103
1.39429
6.26605
4.75142
-1.3425
2.26903
-11.4415
-11.3068
-11.1164
-10.8943
-10.7256
-11.0751
-10.984
-10.8717
-10.7984
-9.97991
-9.94936
-10.1994
-4.26133
-4.12966
-4.4215
-3.78255
-4.09184
-4.28035
-4.39867
-4.50849
-3.67112
-3.91339
-3.97849
-3.85773
-4.54545
-4.06722
-3.63837
-3.77726
-4.19315
-10.6049
-10.808
-10.4361
-10.4528
-10.4867
-10.8523
-10.7843
-10.408
-10.7271
-10.4606
-10.4552
-10.629
-10.9624
-11.1988
-10.4817
-10.8383
-11.2461
-10.3766
-6.91639
-8.13596
-7.64306
-6.97815
-8.59928
-8.36204
-6.8073
-7.75327
-8.96797
-6.76759
-6.5182
-6.90065
-6.59532
-7.56632
-6.7763
-6.57501
-7.20792
-7.38239
-8.42747
-7.85776
-8.64324
-8.54236
-5.79299
-5.95751
-7.61908
-7.31965
-6.26209
-6.7003
-8.17771
-8.0616
-6.79518
-6.54456
12.6341
12.3112
6.89223
9.70855
11.5775
12.3841
12.2306
10.9379
8.07935
10.9293
7.81434
10.3435
10.2128
8.76546
31.623
31.273
30.1195
30.3145
30.3584
30.6987
31.3649
31.0894
30.0415
30.2403
30.1519
30.8102
30.6341
31.1787
-1.69341
-1.52805
-2.06056
-2.06019
-1.92404
-2.16267
-1.78431
-2.01468
-1.72046
-2.12884
-2.38378
-2.27643
-1.7142
-1.85584
-2.26509
1.36364
1.61779
4.17721
4.33767
1.02766
2.43146
2.41397
2.70157
4.07615
4.25621
0.394027
0.739381
1.32406
1.87808
2.84587
1.58718
2.52077
-11.6211
-10.9853
-10.6845
-10.9488
-12.0875
-11.1537
-10.2744
-11.5666
-11.3377
-12.2064
-10.8841
-10.9755
-11.3531
-11.2093
-10.1706
-9.93902
-11.0238
-12.2518
-11.291
-10.3085
-11.374
-9.99711
-9.95731
-9.14843
-9.20195
-9.5898
-10.724
-11.3369
-9.88117
-9.75573
-9.75411
-10.8585
-10.4023
-10.4249
-10.5308
-10.9192
-10.3712
-8.95579
-9.01407
-8.92301
-9.01972
-8.68779
-8.70141
-8.5025
-8.73741
-8.5856
-8.24247
-8.37509
-8.49158
-8.4235
-8.73212
-8.26611
-8.40069
-11.3676
-11.4335
-11.391
-11.5386
-10.8857
-11.5789
-10.7923
-11.5244
-11.3684
-11.2119
-10.8696
-10.7939
-9.93607
-10.3688
-10.2426
-10.9137
-10.9222
-10.7926
9.41667
9.60396
8.67046
8.34134
5.66194
3.77097
10.5621
9.89057
2.91343
10.782
8.23154
7.05744
4.19073
6.87062
9.32811
9.86875
8.53348
4.70992
5.98964
5.41599
5.43683
5.44837
6.67199
7.35049
6.17221
9.06227
8.85234
9.06668
7.31168
8.73271
7.83607
6.45095
25.2952
24.6784
24.0225
25.031
26.213
24.9087
26.4314
26.4913
25.0815
24.3272
23.4106
24.9753
23.7889
27.5884
26.6231
-6.74618
-6.51199
-6.06279
-5.60489
-7.35072
-6.48709
-6.25984
-5.83203
-6.65426
-6.19825
-6.68566
-5.32194
-5.53117
-4.99769
-5.68806
-5.72015
-8.72763
-8.48956
-9.06228
-8.5378
-8.17513
-8.09086
-6.39886
-8.01438
-8.12416
-8.94122
-6.44751
-7.25252
-8.13018
-27.6633
-21.2635
-19.5754
-13.8217
-27.6403
-32.9853
-9.11727
-16.5214
-13.1593
-18.6651
-20.1415
-24.7868
-22.2241
25.7179
24.5583
28.4928
26.0645
27.3735
28.7449
26.8196
24.2317
22.2962
23.2636
25.8774
27.2051
26.1903
18.4481
20.2582
26.4249
25.822
19.9451
18.3887
20.8629
6.76309
6.63849
6.4857
5.59546
6.56067
5.92409
5.61256
6.27121
6.59012
6.54205
6.07501
6.87752
6.66362
6.22963
-3.10788
-2.5905
-2.78515
-3.03631
-2.55443
-3.1336
-3.36336
-3.42729
-3.05794
-3.22661
-3.412
-3.62598
-3.35028
-2.56428
-2.74915
-2.40762
-2.38339
-3.00311
-11.3788
-11.436
-10.9472
-11.1874
-12.1871
-12.005
-11.3525
-11.544
-11.1828
-11.9905
-10.7991
-11.3647
-12.3585
-10.5528
-11.3851
-10.6995
-11.6664
-11.8864
-11.5861
-11.2392
-4.18203
-3.61296
-3.39055
-3.87019
-3.88036
-10.2627
-9.97625
-11.552
-11.3138
-10.3497
-10.9438
-10.0776
-10.3528
-10.748
-10.9108
-10.1479
-10.8513
-10.2244
-10.0431
-9.83131
-9.52084
-9.95042
-9.38924
-9.76253
-8.92994
-10.245
-10.1107
-9.6736
-10.3202
-9.91456
10.1368
10.4489
10.4604
10.1901
9.64551
9.54351
9.92688
10.3351
10.8512
10.8496
10.2952
29.4469
29.9947
28.4047
28.3541
29.3464
30.5456
30.9823
29.4742
29.4671
31.8398
30.7567
33.3915
29.2471
28.5974
30.5437
11.2205
10.4269
7.56103
8.91514
8.34028
9.72453
8.12815
6.72302
6.88565
8.16115
9.75568
8.81979
10.2201
6.98478
7.53102
8.95203
5.36369
5.415
7.42762
4.9401
3.71638
22.2902
23.3282
22.7515
21.7198
22.1406
21.5243
18.9389
17.9486
16.3078
16.859
17.1787
17.0335
20.0652
20.0523
17.989
18.6229
20.8772
36.7013
38.8506
39.2705
36.7395
35.8455
37.5411
36.7434
37.4596
38.8141
36.0547
39.7343
36.5282
35.5672
42.1777
40.7597
40.6857
37.3363
40.3649
41.3483
37.7823
-2.53827
-1.83599
1.84217
0.693243
7.13335
-2.00675
-0.53009
4.62622
2.70445
5.14071
10.3248
9.73084
4.5523
8.00204
-12.2429
-12.1213
-12.0479
-11.9153
-12.1233
-12.2654
-11.9867
-11.8483
-12.0438
-11.7813
-11.8288
-11.7607
-11.7919
-11.6769
-10.0745
-9.76379
-9.68386
-10.0176
-9.59156
-10.0263
-9.6393
-10.1106
-9.84942
-9.9749
-9.85097
-0.282433
-0.177739
-0.234369
-0.441685
-0.703035
-0.222896
0.0106607
-0.241153
-0.191892
-0.373431
0.0925448
0.0974606
-0.215452
-0.0508045
-0.671985
-8.15686
-8.27587
-8.25859
-8.37635
-8.23482
-8.47451
-8.65111
-8.32828
-8.5471
-9.12014
-9.16496
-8.96932
-8.98266
-8.52834
-8.33441
-8.34179
-8.53192
-8.402
-9.62064
-12.2831
-9.53617
-10.7807
-9.6893
-12.6105
-11.4574
-10.8489
-8.94171
-10.0769
-11.2191
-8.96607
-10.6467
-11.2516
-10.8213
-11.8272
-10.8093
-10.8396
-8.21008
-10.973
-10.5179
36.6043
40.2347
38.7439
40.5405
36.6188
40.8743
41.6964
39.0058
43.2347
44.889
41.4305
33.2999
34.2028
38.5653
33.9557
1.33358
1.66717
-0.309138
0.103657
1.98097
0.183717
2.46942
0.824861
0.710597
0.168318
19.4161
19.3713
20.0171
20.021
18.6158
19.8383
20.4136
20.2912
20.3278
20.2542
17.812
18.3429