/*--------------------------------*- C++ -*----------------------------------*\
  =========                 |
  \\      /  F ield         | OpenFOAM: The Open Source CFD Toolbox
   \\    /   O peration     | Website:  https://openfoam.org
    \\  /    A nd           | Version:  10
     \\/     M anipulation  |
\*---------------------------------------------------------------------------*/
FoamFile
{
    format      ascii;
    class       surfaceScalarField;
    location    "7";
    object      phi;
}
// * * * * * * * * * * * * * * * * * * * * * * * * * * * * * * * * * * * * * //

dimensions      [0 3 -1 0 0 0 0];

internalField   nonuniform List<scalar> 
146459
(
-1.84198
2.58632
-1.16892
0.424575
0.821411
-1.06865
-1.59473
-3.23638
4.55162
1.27108
-1.06099
-1.35398
-2.36109
-0.76771
1.98905
1.13975
-0.585331
-1.77576
1.75425
-2.31043
-0.512475
6.90668
3.13141
-8.63857
-1.39953
-2.46745
3.89455
5.47958
-0.397023
-2.82653
0.773066
1.28576
-2.55117
-2.05112
3.35225
1.31536
-25.6992
46.6634
-23.6496
2.68541
-27.9705
19.4087
-17.1374
28.0578
10.3303
-16.8896
-21.4984
54.3238
10.0133
-36.2793
-13.9972
-22.7237
8.75046
21.166
-6.6657
-4.17005
51.6658
23.824
-19.1904
-1.47252
-27.9604
-34.5477
39.7845
-10.8076
12.6177
-29.7706
-38.3986
8.40056
41.1114
-8.37289
-20.1208
10.9537
5.90942
24.2482
8.35717
24.0247
-4.34457
-28.0373
-0.194887
23.2243
-14.6723
16.6865
6.03731
1.30095
-10.2903
10.8481
16.1286
19.2699
-18.5876
5.35494
-11.743
22.0484
8.96457
28.8776
-16.9895
30.7969
-42.685
13.9885
4.59883
-8.50187
22.6114
-14.3044
-29.8359
16.306
-11.6693
-3.94412
8.50713
-25.6964
22.9485
16.7364
-10.2463
15.3467
33.5558
4.17461
-14.7818
9.04111
9.62619
-3.58836
-4.1148
0.832868
6.87029
-6.29021
-3.62936
6.33121
7.15739
-6.52873
-4.74346
0.484448
4.35009
2.32285
7.60174
3.50399
-10.6213
-17.895
-17.3356
20.3583
14.8722
-17.7431
21.5729
-3.82212
-0.0077341
-5.04502
-0.408563
-12.2895
-15.5048
-1.29159
-1.09854
-11.5517
-5.42057
10.5617
6.41059
-3.96425
17.1158
8.4214
-15.8221
-2.87928
14.8792
-14.8163
-6.05074
-23.7213
4.46184
15.2952
-16.8133
-7.31651
2.81549
-17.0241
-3.12692
-8.73623
10.0351
-10.9938
-21.3863
-11.1426
-8.42296
-2.30277
18.1527
-7.42695
-8.20259
-0.786993
0.566626
-11.6974
21.6698
-12.2752
-8.4611
0.662487
-0.403982
9.35423
-1.05741
1.17232
-9.46914
-5.40539
6.29852
3.12748
9.01109
-8.95798
-3.18059
-5.64575
8.77322
11.0511
0.439643
-12.5482
-0.804688
1.54367
8.27211
-0.317463
-11.362
12.8517
1.28206
-9.8004
-13.9229
1.42084
-12.9583
0.536641
-1.27703
0.03585
0.704534
-0.574173
-0.181672
1.29249
-0.652382
-0.470885
0.549094
0.252363
-0.312543
-1.21685
0.726987
-0.656295
-0.248575
-0.745534
1.02996
-0.801013
-0.0999437
1.67418
0.269866
-0.463391
-1.48065
0.101891
0.854877
0.717411
-0.805861
0.436867
0.0488895
-0.584884
-1.20706
-0.610319
1.07184
-0.570112
-0.949487
0.296614
-0.100099
-0.806834
-0.45551
-0.339407
-0.932046
0.701341
-0.902897
-4.15725
10.272
6.76416
-12.8789
-1.93618
-17.1597
5.55008
13.5458
-16.2682
10.1748
-9.79931
-23.6286
-6.39232
15.9739
-9.58157
-12.2094
13.7043
4.05514
7.83251
-23.9886
6.35675
-10.7692
9.0153
-6.41739
2.46262
-5.06053
-0.61664
5.58764
4.0443
0.137229
-1.26073
-5.29388
7.95789
-1.61446
-6.20619
12.1903
4.96734
-9.19978
6.44624
5.12745
-6.90944
9.37206
0.327473
6.91358
-8.50179
-9.55507
8.26808
13.2396
-8.27222
0.00414103
-6.52207
0.865643
-6.28575
11.9422
-8.97355
-4.60664
7.05812
6.03335
-6.98654
9.84244
-8.88925
0.150435
5.88292
-7.48094
-7.38856
15.7351
-0.302578
-9.25343
0.58246
-6.58833
-4.17051
-10.6327
7.32224
-10.7365
1.95938
-0.054866
-8.65693
-2.02473
-7.62186
-1.68644
-4.53845
6.43789
-9.52131
5.49035
-17.0153
10.7413
-0.336531
-0.562365
9.23569
9.97777
-13.1444
-0.991426
4.3761
12.8263
-9.86712
-7.33531
10.6378
0.441985
-6.70371
4.38922
19.0749
6.52385
-12.0018
10.5703
-5.0923
-9.91044
20.8235
6.17022
4.9306
-23.0637
11.9629
4.72755
-10.5592
5.18289
-10.1194
16.8026
6.9971
-15.4349
-8.36482
-5.62461
16.2072
6.22003
12.1594
-3.89201
-13.892
9.41775
-0.400398
-2.02026
6.76836
18.8566
-2.23687
10.8333
-8.99679
11.0194
3.22757
-2.08752
23.8829
-6.09517
-6.48061
-7.74654
-2.0856
16.3127
-12.8286
-8.96993
15.3179
0.0345024
-7.78104
-12.8254
0.0313765
-1.17382
-24.4099
16.6138
6.517
-19.5382
11.8474
-8.02695
12.4583
-20.3798
-10.0879
22.4407
12.515
-27.7425
-5.15224
2.42708
-3.11921
-18.6098
-2.68097
-12.3513
-3.59333
-5.35396
-24.4549
-13.693
-10.8281
-6.87713
11.6794
-0.918172
-3.31071
-7.45054
-5.33258
0.14414
4.98926
0.199179
5.5706
-13.3944
2.49118
-9.40858
8.52928
1.02344
8.96538
-12.8034
-1.47552
4.04889
9.10604
-13.4568
4.71041
7.27084
-0.918053
-2.44941
-10.0893
7.41355
-3.34246
11.1745
-3.12721
6.9812
12.7226
1.30644
10.156
12.998
0.108228
-6.17913
8.21017
-2.13926
-8.4075
11.2377
-2.72202
1.32272
-15.9094
-15.1587
-1.37202
13.6346
2.89615
11.8445
-25.6805
10.4725
16.763
7.71988
-16.2727
-7.51718
8.48818
15.792
0.202692
1.19307
9.14678
0.897895
11.577
3.25072
-0.0210315
17.656
-10.6752
22.2311
-5.94904
5.35566
10.5598
-9.96641
-8.22641
4.67557
-2.3982
-17.3534
5.63514
3.49188
-6.34948
-9.67357
21.3787
6.14855
-7.82246
-4.13374
-5.53982
-3.86415
1.52429
-17.0864
19.4263
21.0584
-21.6689
-3.25363
4.01382
13.6503
3.39423
16.7817
-1.85831
-13.3991
5.353
19.2362
-7.80746
5.83594
12.1741
-13.9962
15.7156
3.93403
-19.6145
-0.0351787
-2.0302
17.7458
-13.9943
16.07
-1.31581
21.0599
-14.3911
19.7353
-15.2152
0.812174
6.07205
9.61619
-16.5004
4.42397
6.74963
-10.3614
8.20134
7.10461
-10.882
-2.90182
17.6617
-6.55849
11.4822
-8.31194
0.0523351
6.6973
9.66853
7.55694
-12.3218
9.35894
-4.5941
-2.52737
15.5039
-5.41961
0.161519
6.94309
0.983025
-1.82263
10.6516
6.85882
14.983
11.8206
10.1233
-4.82734
-17.1167
-4.41544
8.80889
7.4272
5.7079
-12.2951
0.798381
18.0126
-6.51592
-6.91777
3.43155
-6.19458
11.9025
-16.7731
-5.01305
12.3804
9.40576
11.2076
-6.89614
-21.0846
15.8537
-9.07021
-15.4419
8.65845
1.74517
8.04019
6.06834
-5.91514
18.616
-20.7937
8.21039
7.1613
2.47929
-17.101
7.46042
6.49837
11.5573
-10.8944
-5.87452
-17.4973
6.05187
17.3199
-20.9893
3.63806
11.4767
-4.88972
-6.07819
-10.0214
-14.8296
-7.55739
5.61786
7.01248
-10.1511
12.1162
11.6145
-0.0658158
0.00862493
1.3803
-5.08343
-6.67272
10.3759
-8.89104
16.3232
-11.6329
10.1875
12.4879
-11.5536
-3.98953
6.71302
-10.6622
-1.45399
2.30899
-5.02683
-11.2742
9.75981
6.54121
-10.0194
4.99253
9.1353
-2.26307
8.73599
-15.6082
-0.884063
7.41415
-16.0254
6.34814
6.97588
1.91971
-1.48144
-0.646132
-7.27204
0.177818
7.74035
-8.9851
-1.32386
9.66283
13.9826
0.472363
-3.46017
-10.9947
14.7872
-9.78972
-2.06582
-1.18022
-0.206135
-6.04287
0.373789
5.87521
-8.81578
8.60965
-3.94289
-6.80479
7.5089
3.23877
8.21114
-12.154
-8.69109
-0.124695
12.1329
0.995083
0.483384
-13.6114
-0.145806
12.2787
0.826171
-8.52218
8.71819
0.748946
-8.98376
9.14857
-0.576183
1.15756
-7.70899
0.508564
3.50134
-6.13388
-10.7025
7.79957
-12.7841
15.687
-10.4793
-0.223187
-4.67381
17.457
-4.98365
7.28216
-7.49466
-9.34468
9.55719
-3.73839
11.0206
6.02366
11.0506
-10.0984
-6.97586
-4.45566
8.19405
-5.24569
-10.443
-3.08237
1.34893
7.1088
13.7603
-17.1074
-3.76173
-11.5255
13.9605
3.60824
-18.9524
-13.4915
-1.1164
-19.1447
9.2615
-0.878472
5.36153
-5.95581
1.47275
-8.93579
8.05732
-7.7455
0.27021
-5.09239
-5.76891
-1.97659
-8.0869
10.6014
2.37963
-21.9168
3.37964
1.26596
-5.79849
0.0295801
-10.1258
6.70695
-4.50486
3.02726
-7.68826
-0.238053
-4.26681
5.71321
-1.35701
-8.6759
4.3197
4.39597
0.35263
0.964603
2.71141
3.42733
-7.49575
-0.241849
2.95326
-6.33368
5.90976
0.182071
6.68722
-9.59357
2.71521
-4.11725
5.75368
4.27333
2.62105
-0.0510766
-4.9951
-0.832041
2.02192
0.0397354
-0.571064
-1.59297
2.1243
-0.454995
-0.0994572
0.594188
0.24542
-0.563368
0.402298
-0.0843496
-0.938189
2.10492
-0.921311
-2.11309
4.29645
-3.12155
-0.562659
-1.55043
-0.113895
1.89681
-2.35398
0.150875
-0.0604763
-0.653766
-0.222046
-0.082074
0.623135
-0.959076
-6.22199
6.00665
-17.8416
18.0569
-21.697
2.91487
12.5602
-2.43849
-10.4633
-8.79527
17.4322
-11.2053
-8.66547
11.1703
-5.84834
12.1103
-4.48251
14.4538
-3.96466
9.60266
10.4015
-2.45343
-19.1533
4.55316
-16.1561
-0.748526
-0.936942
-7.66107
-18.9583
12.1952
-6.68462
7.15054
-12.6611
12.4427
-0.996067
-2.18456
6.73772
-16.7991
-4.96598
8.5601
8.84862
-1.55759
-0.258437
0.99276
0.823272
2.19348
-1.1318
-2.61927
1.93504
-0.716608
1.55783
-1.97303
-0.800115
-2.60221
-1.39657
4.79889
-0.432494
-1.2892
0.921579
-3.0347
0.562863
1.17461
-2.45408
0.266423
0.458174
1.09966
0.236221
-14.2385
13.6146
-14.0658
14.6898
2.47583
-3.54609
-13.1683
3.66146
11.7428
-20.4728
5.0686
6.01273
14.0204
-16.3717
-5.20255
7.67838
13.3325
-6.63202
-0.687713
-0.380447
0.40908
13.3038
0.0639263
13.9565
11.8067
13.5761
6.60416
-6.87639
-15.2942
12.8867
9.28394
-11.7548
5.08952
-0.211069
-2.76305
-3.92299
-8.60818
-4.90196
-9.61594
7.84599
-7.70876
4.95229
-3.09871
13.3943
-11.8224
3.34199
-4.91392
-8.84277
15.0269
7.21017
-7.12026
-5.64549
-15.2056
-3.737
10.2167
-6.8747
-10.0333
-4.24379
6.56834
-10.4649
-4.47042
-11.1185
-1.93451
-2.50189
-0.0587128
4.49511
5.21283
-2.51437
-0.328456
-2.37
-3.39147
0.83748
1.71524
0.838753
-1.63707
4.95112
-3.31405
1.90662
-3.54369
-6.3513
0.68715
19.1422
-13.478
4.42582
-11.2906
0.513515
-12.8908
-5.89202
19.47
-10.358
-5.53386
3.00103
13.8129
-10.8323
-15.3588
12.3782
15.2717
-7.3508
-23.8232
2.63302
1.44726
2.82699
-5.40592
1.13167
3.75981
-4.41425
2.1017
6.60043
-5.95088
-4.9975
4.34795
0.586682
5.4125
0.601253
0.589629
2.82405
0.827123
3.52232
1.2655
-5.14948
-1.52194
-2.93084
-0.217904
-0.533834
-3.81552
5.59122
-1.24187
-1.68246
1.97574
0.943499
0.241262
-6.33425
1.20771
-3.19505
-2.70327
-6.57847
5.46622
-5.67729
1.29157
1.28882
-6.99844
-0.865756
-0.901614
-4.8111
-5.33534
-3.64758
4.03479
-7.84351
-5.29281
5.4988
7.63752
-0.690089
-2.50035
-4.65308
8.45493
-4.2297
-4.91531
-4.61651
4.97336
8.09807
8.52996
-4.28745
-8.4722
-0.513421
4.42687
9.77849
-3.55118
-8.72766
1.42886
3.05682
10.6823
-0.210147
-7.72364
3.56264
-1.17597
-10.8351
-11.7245
6.99731
2.79442
-6.36306
1.7729
5.26382
-7.86504
0.828325
-6.11181
3.84989
4.03481
-14.6091
-0.245766
7.95218
6.90268
-5.12287
-0.988431
-8.49779
8.45113
-1.44964
-3.11604
-3.88544
-5.18968
7.529
-10.24
4.80458
-5.30739
-10.0555
2.42913
-3.20668
6.04138
-2.73746
9.01648
8.49967
-4.39707
-5.55224
-2.08273
2.71735
-11.9336
4.04753
0.0699764
7.81609
-5.6022
-7.31982
9.26224
-1.5312
-6.89223
6.57919
-2.77696
-8.1993
4.16547
0.330994
-5.01946
1.78544
3.304
-4.78679
-5.83487
2.74422
-9.09495
-15.1409
12.4314
15.2912
-12.5817
-2.34513
-17.3845
8.58144
11.1482
-26.437
10.214
13.8779
9.11952
-13.3198
-13.1842
-9.61772
-7.69976
0.437145
-12.3104
-0.994413
12.8677
-0.830139
11.0739
-9.80662
12.7902
-13.4351
-0.185217
-11.2753
10.1594
9.69734
0.519108
-1.76188
-13.8982
-15.8761
15.5026
10.5875
9.65216
-11.8981
15.8631
-12.6906
-1.10404
2.21395
-2.22697
-1.19152
17.6237
-14.2182
0.483922
-2.52675
2.40563
-0.362802
0.133351
0.350571
-1.87137
-0.507045
-0.524059
2.90248
-1.73802
-9.19385
-2.82617
6.74993
5.27009
0.0275121
-1.43846
-7.7829
4.05199
-2.84562
-2.94439
-0.60943
4.15437
-7.20495
4.30165
0.0771327
-1.15305
-6.02439
-0.00126981
-0.256986
0.608827
-3.68107
-0.257537
2.13911
-4.54106
-0.675293
6.81579
3.36882
3.88342
8.40352
-15.2524
2.96547
8.6096
-11.8863
7.1601
-18.6821
-5.66565
11.426
12.9217
-15.8639
0.103763
-2.92191
-6.42956
-12.1635
17.0844
1.50864
8.31088
-4.81644
-9.924
7.74538
-7.45535
8.11349
-0.194791
16.5498
-9.3386
-1.51895
-1.02872
-16.2801
11.0266
8.60953
-24.4526
14.888
-16.0249
7.49904
-14.7534
0.314434
17.7139
-2.72212
10.4577
-5.07766
12.3338
21.689
4.55136
3.79849
-7.15352
-5.37263
12.4279
5.53971
-8.21303
-9.75458
3.74219
4.95202
3.73369
8.73421
-3.4079
-1.52782
3.35408
8.43695
-1.17824
-3.87198
8.4043
-2.71053
4.32672
-5.13587
-12.9121
6.32354
7.64049
-9.50822
5.60993
9.11105
-2.19852
-1.37282
7.0683
6.99477
2.91625
1.44152
6.68476
-10.2159
-2.70024
-0.804872
-17.624
-13.0943
-4.13565
1.97909
23.6917
-21.5352
-17.473
0.0871477
13.2502
-15.4269
-3.71041
1.6643
-1.90307
-12.8574
16.7396
-8.72949
6.91357
-7.49267
-11.4599
3.52564
11.222
-4.59182
-14.4149
7.78467
18.278
3.03244
-10.0884
-7.78338
13.204
7.72714
9.78852
-6.75643
-10.7592
15.0348
-7.53332
0.22569
-19.6046
8.50148
3.31969
-6.7836
-14.2873
14.0593
-2.96294
-4.67456
-10.3514
-16.0228
-10.1104
6.674
5.96475
-2.52839
7.77429
-12.9032
-4.98147
-10.2503
13.2817
3.00619
-6.03767
11.5059
-16.4194
-5.33673
2.89761
0.0811201
8.52715
12.4843
3.69502
-13.8512
14.2098
6.31536
0.186629
-6.2635
7.57303
16.1563
-17.548
-6.18125
14.6682
-6.90858
11.9589
-2.98792
1.95336
10.6317
-0.100779
16.2437
-4.76143
4.67401
15.4934
15.4185
1.65211
12.2601
0.854052
16.5414
-1.90206
16.716
-8.8585
-7.32098
3.73014
12.4493
-9.49111
-2.58942
3.22203
1.05252
-10.8895
0.345892
12.2397
-12.5956
1.40839
6.50478
-10.0087
0.914537
0.532593
4.38612
6.02848
10.6779
-10.2016
-5.79811
15.5567
-6.12332
-2.36833
-1.51709
3.35635
-8.28846
-1.19122
2.90779
-10.441
-1.11128
-8.57649
-4.73549
3.89827
-4.9609
-4.31719
3.32149
9.58406
-8.58835
3.30122
-3.84288
-3.77553
-2.47213
5.81143
-5.70762
-8.3908
4.18791
-6.20087
-12.5188
26.5637
-6.73579
-7.30914
4.5432
-16.601
-0.460987
5.24432
22.1423
-22.8434
-0.86561
29.7177
-5.79581
-23.0563
6.64094
14.6798
-34.6732
13.3524
21.6329
-17.2542
4.46783
19.8911
2.20474
20.372
6.23811
-2.47027
18.7462
4.09611
17.3019
1.86073
15.6747
20.684
-8.4186
-7.9045
35.0693
24.558
28.7081
-16.7215
7.49431
-1.78905
-10.6729
4.96759
-11.0406
16.6701
1.86483
-12.5836
4.54791
-1.93337
9.96904
-5.11534
-13.0238
19.9707
-1.83154
15.1611
-6.57852
-13.6979
-1.44925
4.02679
-11.3299
4.29223
5.24859
19.5745
-19.5775
-10.6698
-10.1499
18.6837
-7.47283
4.94895
1.07463
-2.60195
-11.4494
-5.63891
-0.741999
-3.87368
-5.91293
-9.79093
-16.3981
8.44771
-2.1995
-7.73172
-12.54
-4.5569
-6.99494
-2.63445
-11.0473
5.94998
-9.7933
4.07199
0.235262
1.73413
-7.11536
3.6726
7.51475
0.901478
0.999645
4.59712
-0.169833
-1.68307
3.52201
1.31037
-3.25889
-0.968953
7.90045
-3.67511
1.3177
8.05322
-4.69498
-1.05464
-2.30361
2.89755
7.55268
-2.39701
-1.56081
6.88157
-1.29444
5.45061
-0.780596
-12.0094
-2.56545
15.3555
-8.72664
10.1708
-2.22481
-13.8815
6.62171
-2.34198
9.60175
-1.68883
0.0116698
-7.04948
-2.51687
-11.1814
-10.156
9.9597
-2.36914
-11.9732
-1.99046
11.772
2.19159
-5.69896
-20.1557
-3.60004
0.0657435
-6.6213
5.87576
10.8662
-10.1206
-19.9099
-0.521262
13.8098
-6.99413
7.78816
-15.026
14.232
7.13508
-19.8282
-12.1611
-3.19763
11.7587
-5.87151
-6.25019
-10.8976
0.430029
13.6378
-3.8313
-10.2366
17.3882
-4.52431
-12.4339
-5.38074
16.1669
2.85164
16.1078
-4.10034
-2.93454
11.7813
-13.3711
2.31837
8.42163
-13.6745
-0.615117
-12.6817
2.35511
10.9417
-7.38366
0.2175
6.55105
-2.26548
6.66316
7.20988
6.63246
7.38513
15.9917
8.488
-10.0009
2.25153
-6.51156
-5.60864
8.11397
4.8798
-13.8075
-2.79422
10.9931
-3.06794
22.0573
0.258195
-4.96123
-17.3543
13.8899
-1.36836
9.53576
5.14797
-11.3114
20.0533
-3.91237
17.4841
-8.05736
-5.51439
20.9594
-12.0974
-12.7744
-22.425
29.1458
-6.46259
-5.37045
-13.0839
-3.97065
-7.87811
-1.60427
14.6304
-13.3995
4.15307
-8.62834
9.63265
16.4798
5.79818
6.53291
-16.0132
8.41184
-5.34616
-19.0124
8.34536
2.3247
-19.7682
5.71295
-11.4456
0.532761
17.3017
-17.0856
6.81819
10.8002
-16.7431
14.8466
29.7262
-25.4765
-22.4987
18.249
-1.56434
16.525
14.7655
-3.8563
26.9523
-10.4569
-12.6391
12.0065
-24.9175
29.8473
-16.9362
-16.8874
3.41735
14.5267
-31.9229
15.8318
6.44706
9.78867
-41.1533
-20.3376
9.89728
-14.7329
25.4034
0.0253749
13.3351
16.0223
-29.3828
-12.8409
10.7653
28.9598
-26.4423
7.27123
-26.2223
11.5148
-10.1035
47.7916
-31.5407
-2.26194
-13.9889
24.2054
32.9024
-9.31623
-20.2084
29.9302
-21.4109
11.6891
-38.6906
-13.0585
47.9973
6.13827
-4.27072
-31.6052
-2.81463
12.4538
7.1449
-41.0096
-18.8123
-21.4758
26.1504
14.1376
-16.5401
4.46304
-6.73521
24.0944
-29.9367
25.8735
-20.0313
26.9919
9.55626
-5.22736
-26.4952
27.4519
-0.861612
-35.362
6.28699
-24.2705
-0.436801
3.23148
-23.4236
-17.3869
21.5064
3.93033
31.0863
17.412
-29.5126
3.79396
9.08446
-1.54903
-11.3294
-11.7906
11.3768
4.2077
5.71107
-12.777
-4.72469
-8.65496
14.5634
2.01273
-7.92114
11.1721
-16.3295
-3.49759
-4.35804
-2.33765
18.0725
-3.59235
8.31876
-1.0727
5.45446
10.1816
6.50708
11.2417
-3.51789
14.3585
-7.08608
-0.622416
2.79444
4.91406
-4.23274
0.0340404
-2.88739
2.32258
-1.87083
-4.68449
0.656048
1.04412
-0.496553
2.00556
-0.852962
1.9527
-1.18724
-1.26201
-1.10114
1.43107
1.67563
0.840182
0.0113806
-5.59685
1.80641
6.58488
-3.4473
-2.11551
0.344281
1.58585
-3.80096
2.69715
-1.19059
0.378423
-1.88499
0.875155
0.939289
0.882711
1.26926
-2.11222
-1.58239
1.51089
0.946657
-1.50372
0.601704
1.74937
1.35085
-3.2123
-4.19152
3.04694
2.08387
-2.46225
5.14277
-0.289416
-9.82454
-10.2151
24.0438
-4.0042
-15.1101
-18.1409
23.4265
5.62313
7.97262
-0.251174
-13.3446
-0.358538
-9.12845
6.49027
-8.7327
-12.4281
1.95478
25.0816
-14.6082
-0.837006
12.4527
-6.14835
16.2578
-10.468
8.51221
-14.9117
8.07883
-16.572
7.65618
-5.99073
-7.41246
15.358
-9.27404
11.3621
7.96201
5.29024
3.00555
-4.31926
-5.76249
7.16392
-16.6274
0.189424
7.71347
-12.4344
5.945
-3.89427
-2.14989
0.0991574
-1.33505
8.38004
-1.09999
-1.04488
2.43038
-5.9092
4.5237
1.26273
-4.52841
2.2208
7.39772
-8.23215
-3.05984
8.49305
3.92899
-2.48396
-4.78909
3.34406
2.33221
2.85951
-0.904358
-1.11834
-3.8865
-3.55564
-1.87713
-6.29342
0.253826
11.015
7.81593
-4.18491
-14.6461
-1.27106
5.39805
6.88805
3.21314
3.33173
7.11148
-0.331582
-3.56676
2.55881
5.12531
-11.869
-11.564
2.57375
16.1018
-1.88965
-0.589122
-9.08526
4.08932
-7.1563
5.62578
8.84406
2.95282
-6.67157
4.10934
10.1328
9.41276
-9.71722
-1.58519
16.0959
-2.67507
18.3674
14.9599
0.188966
-33.5162
-0.213966
25.7929
-7.21154
-40.3979
10.4933
15.2139
14.6908
2.75409
-14.5046
-28.6474
41.6225
-11.6916
-27.1768
27.9957
24.1201
42.036
-38.7677
2.34845
27.7072
11.9804
-11.5904
15.9452
-4.56883
9.3812
-20.7826
-27.9384
21.0747
9.21217
13.5649
-15.7105
17.6473
-22.7708
13.3229
42.38
11.8852
11.1772
-5.41508
20.2064
6.89268
-17.1824
8.78141
29.4757
-9.28284
5.66538
-12.7766
11.0756
21.9074
-3.70509
2.10567
2.95728
33.1799
4.48508
6.67128
-26.863
15.7067
10.5082
26.5834
-32.6065
0.234704
19.8298
-13.3932
31.7477
-21.0047
36.5358
-16.181
6.22852
46.3695
2.90301
-21.4969
-27.7756
21.9395
18.1763
-20.2859
23.7052
31.7803
-23.7379
46.0069
-0.362283
0.321937
31.0405
15.0071
-45.2335
14.9727
30.5828
-18.5143
17.897
-44.6163
33.5149
-12.4356
-3.11094
15.0553
19.836
18.9685
23.9276
12.1372
-4.5392
25.9169
10.6852
20.4204
-18.6697
31.4697
2.1727
18.8764
-0.854826
15.262
-0.225639
16.404
-3.76352
-12.4149
-4.82741
20.3928
-15.7911
-2.81577
20.8602
-22.8718
12.8104
1.14467
-16.7708
5.74141
13.3246
-2.66199
21.2484
4.88589
-5.09099
14.0601
3.84128
18.2559
-2.48672
12.6816
-15.3004
-17.4268
-13.5934
10.1733
20.847
2.68251
-19.2805
-0.828885
15.9994
3.91278
-1.23095
13.3176
14.8519
0.944417
5.45205
16.1025
-22.7014
-1.35192
3.86103
0.331776
13.7543
2.95683
10.6641
13.452
5.74828
9.58076
3.12743
-6.87086
10.1595
16.1619
-5.25462
8.17453
-8.37612
5.45621
-0.165603
-3.84684
-1.24217
-9.88382
8.84573
-7.71529
8.75338
-3.0537
-12.3064
5.47628
-6.22142
10.5319
4.53528
-4.93435
-1.45267
-6.30972
2.25627
-7.99191
12.0454
4.90806
-0.685907
-2.34994
9.51426
-6.86008
12.6847
-12.7864
5.3976
-0.987309
-9.61986
-7.01339
-9.37794
1.38989
6.85504
-0.48715
-0.987842
-5.38005
17.1471
-18.2839
-6.01058
4.5481
-0.563301
-5.93443
8.40872
-6.63956
-7.46829
5.69913
3.77203
1.79021
2.84648
-8.81224
-10.679
6.80087
12.6904
1.81482
4.40893
-12.8633
7.50929
-14.5067
-9.51613
6.19465
-6.59277
9.91425
5.62487
-7.63171
-7.63931
3.06861
1.92826
2.64244
8.99701
-12.2274
7.0534
4.90843
-2.96483
4.86324
5.25878
1.93913
5.614
-8.94623
10.1869
3.62252
-0.265768
-5.11947
-3.10404
16.4265
-8.20299
-26.6242
1.13239
13.9876
11.5042
-1.59081
-26.5091
1.47573
-16.1015
-2.59503
13.577
8.1575
-0.997953
-23.261
-20.6382
10.0432
11.7273
0.213935
-22.4429
-5.34814
12.2873
-18.0009
10.0578
-19.2574
1.4704
18.147
2.3207
0.855081
-21.3228
7.80862
11.8114
-1.473
-6.9181
-4.57868
6.19019
5.30659
-13.71
-8.53093
15.3229
-12.9077
13.5692
7.14712
2.04711
-12.6341
-13.2249
11.3263
2.17458
-14.5444
-4.58458
18.5861
-0.432374
-3.40238
-17.9549
16.7786
-24.2805
3.00305
17.8751
-2.14961
-25.8782
3.74731
-20.7715
0.666966
-16.6527
15.0711
3.41274
-22.0097
0.275323
-22.7408
-14.3302
-17.2505
3.77968
13.6889
-0.218168
-8.4348
5.27382
-14.0895
-1.69091
6.35106
5.02098
-9.68113
12.1134
5.98963
-19.7939
1.41353
11.0574
-0.357524
7.27966
0.484937
18.8744
8.83145
-15.3169
-12.3889
11.7127
7.91953
-0.757838
-16.9113
10.8651
17.7588
-5.55257
-2.52725
9.28142
-12.6952
10.8779
2.18324
6.73036
-3.80314
2.3466
15.8612
4.55815
-14.8311
5.50379
-10.6023
4.43024
17.0372
-5.09752
13.4113
4.74617
8.862
16.2494
-9.25028
26.7036
5.09408
9.99908
0.701379
-15.7945
10.2004
-11.6926
6.5862
-4.67194
1.08199
13.7904
-2.8553
8.18245
3.42595
-0.312375
-14.8061
-8.65756
-3.40334
13.1429
8.34047
-4.07581
2.6837
-6.94836
5.66665
7.9322
-4.37349
-9.22535
11.4277
2.74933
-8.51039
0.734756
12.0343
-4.83689
13.1244
-4.04921
-7.58985
2.35823
2.54198
6.03044
-10.4566
9.59522
-6.62585
8.20359
-1.09126
6.18635
1.01617
-5.12335
-2.07917
1.82866
3.03865
1.31904
-3.0898
2.37116
2.54731
-0.59762
-1.47601
3.87302
7.60199
-8.43636
-1.6981
8.07825
-4.009
-3.16
9.4138
-2.90211
-3.35169
2.35133
-4.59753
-0.913792
2.91771
-1.44682
-2.0685
-5.2076
6.42721
3.61414
2.24334
3.55631
-6.15259
4.55913
-5.24809
-6.97151
-4.93085
4.70525
7.19711
-9.16546
0.993248
1.2007
-2.35716
-3.03042
0.456722
6.83557
-8.48068
-0.712049
5.80023
-8.60364
9.63899
-6.54768
17.0532
-4.49672
-7.69916
7.17925
-8.85724
2.67123
-5.50516
6.13674
-8.34931
-0.0511061
-0.0802672
-4.09302
-10.0158
-9.04174
0.103433
0.0810734
13.4007
-0.506914
-11.2431
-1.65066
16.4241
15.8163
-19.8513
-12.3891
3.9584
10.9485
1.51713
12.1101
5.24897
14.3745
3.06465
-1.62289
13.0695
12.2536
24.1053
-12.2293
-3.56782
-8.30821
0.518154
-1.78628
25.3734
-15.142
-0.577827
16.2379
-15.2611
22.7556
-14.6921
-11.6314
-0.979395
21.9487
23.2704
-17.07
-6.62768
0.427312
0.618651
21.6724
10.8681
-13.4486
-14.4895
15.593
-1.66022
-1.01308
13.5047
-6.53632
-14.7834
15.1985
13.0277
-0.229665
2.87638
-15.6745
1.82893
13.8955
-2.69668
21.6077
16.6955
-22.9819
-15.3213
-2.99174
10.7799
13.8196
5.20289
8.50089
11.6569
2.47424
-14.3608
-1.6882
15.174
12.1621
12.5132
3.18082
-23.2863
-19.3445
6.90558
11.5308
0.908158
-12.7545
-1.03467
-5.5554
1.20987
17.2075
-6.25525
15.0349
0.0458015
-11.8999
10.2381
9.99967
2.86722
-13.1474
-18.7776
4.87706
20.8061
-13.0593
-6.75299
16.325
-10.1462
-0.756614
0.671089
-0.911445
0.996969
0.417833
-1.85254
0.678097
1.40547
-1.44249
0.454854
0.181392
1.89517
-1.35382
-0.21345
0.655825
-1.86438
-1.34199
0.435056
0.983434
-1.63194
0.551084
2.06599
-2.18202
-1.61776
2.35023
-0.983484
-0.112729
-0.721315
1.81753
1.51297
-0.694459
-1.80199
0.732963
-0.874707
1.65471
0.782609
-0.875778
-1.34932
-0.102186
1.25131
-2.82155
-0.725794
-10.3368
14.7268
-15.5986
11.2086
7.83689
-0.136534
-18.0371
0.90482
-3.17765
10.1097
-4.54853
20.1801
-24.9116
-1.15656
5.37902
20.6891
-13.8095
-1.50232
-9.59974
1.60419
-5.42457
-11.7782
-3.18903
-15.7689
14.4094
-18.5837
14.2381
-12.1303
-20.2629
18.2635
-11.2877
-8.47811
20.4649
-9.98256
-4.18213
-8.41253
-0.716604
-2.15857
2.97897
-17.1624
5.77092
-19.1339
3.95585
7.71149
-11.6673
8.80341
-7.51174
2.66418
1.35086
-2.33433
8.69496
-0.913617
11.0679
1.25829
-12.9256
-6.13792
-0.115535
0.947662
-17.6137
1.74207
14.9239
-14.9643
2.29378
13.6182
-21.8483
19.3346
1.7387
0.774966
-2.29003
0.0263723
-19.5846
-3.42898
5.1499
-19.0066
0.613356
-10.0956
11.4758
-0.287614
1.33982
-7.19013
1.76993
-14.9832
-14.1246
13.5324
14.085
-14.6051
1.69902
-1.63541
-17.3449
-10.3912
1.07563
7.18601
1.52975
-9.79139
2.40942
0.168688
-13.4576
10.8795
16.6819
9.35005
-18.9113
-7.12073
-9.43082
14.6464
11.4663
-6.81621
8.88932
-2.68244
0.609324
-9.07414
2.54644
-0.288506
15.1249
2.68617
-15.4017
-6.50533
12.5561
0.711856
-4.53102
-9.88971
10.2982
-2.87341
2.46489
2.39484
-12.1159
-3.22411
8.36387
4.21029
1.53695
-18.0534
-7.18201
8.14976
-9.72238
1.07295
-3.72596
12.3754
-7.94231
-24.3871
22.607
2.2954
21.3106
-13.3729
-10.2331
-12.2057
2.31176
3.89885
5.99504
-12.8427
-15.4982
16.1352
-21.8673
1.0823
-6.89409
10.3315
15.9377
-19.3752
-3.42411
-2.39702
-7.26343
-8.87449
18.4333
-8.65136
-10.4305
11.8184
-7.2824
0.9428
0.725209
0.731801
-11.9151
2.20982
-8.51628
-10.6812
-7.42184
6.22697
-7.62395
8.81883
-10.863
6.42988
-2.9887
0.19612
-10.9109
12.3314
-1.61655
-9.64069
-1.02621
-6.15338
-3.64008
16.0204
-6.22274
6.49924
0.241453
-16.0784
9.61418
-22.0318
8.59842
13.6748
-0.900378
6.91323
-15.6535
7.39885
-19.2102
3.82012
-12.9853
-6.72258
-11.4891
-0.303427
5.01084
-10.4872
15.4455
17.3411
-16.6649
6.55053
47.1588
-28.6332
-1.79831
-16.7273
1.25619
21.5535
24.349
-33.4023
-2.66017
23.3707
12.6918
-19.6319
-42.4036
-25.2915
12.7332
13.8145
-17.05
-10.0398
-26.7129
13.868
10.1848
-12.1495
8.79122
-23.3546
0.465779
-32.2473
8.52617
36.3981
10.1399
-14.5346
17.1278
-32.2749
28.8684
17.2745
-5.65698
-17.8267
16.025
9.83279
-25.392
25.4994
-6.83334
13.9793
-15.0043
-2.5179
1.9626
18.7527
-14.5769
1.97116
14.2636
-6.95631
3.29647
-14.738
18.3978
15.8551
-18.1181
-1.19717
4.65346
-7.00524
18.2069
-11.2542
-0.461754
-10.8742
22.5901
-1.7708
-16.4397
-2.88141
22.322
-5.62933
0.732354
-13.2211
-9.96965
19.2208
-9.71293
3.2922
-15.0327
-19.3759
17.0387
2.40064
4.15878
15.8585
-22.418
7.57267
24.4578
-29.6298
13.2065
-9.17769
10.3601
17.0926
3.2492
-1.12096
21.7838
7.58926
6.59254
-26.0799
10.8911
-16.4861
-6.19461
9.04452
8.29826
1.45362
18.5257
-9.08817
10.1855
9.76402
-13.357
-6.54629
18.1854
8.62401
3.70707
11.388
7.11498
-9.87895
-0.835328
9.49531
1.94505
2.22685
-15.252
11.0801
15.351
-6.64861
6.9236
-15.626
-4.52896
-0.969088
20.849
-12.8236
3.49569
-2.0996
11.4275
4.11629
-14.9948
-4.41435
14.9601
-15.0747
-9.96703
-3.82543
12.8234
-16.6362
0.0205868
21.4285
-0.915615
-10.0283
-10.4845
2.17278
2.1806
17.0751
17.7465
-9.25329
-9.40881
4.4948
15.4245
12.9749
4.00543
-12.864
-0.165634
-0.466886
-12.7332
17.2055
-4.20291
-12.2692
16.0053
19.4476
-11.7644
-17.7115
17.2139
13.9404
-13.271
-13.7405
14.0773
9.99957
-19.7082
-4.36865
-7.20734
12.0881
9.1966
6.3289
-3.53667
-15.5705
4.04377
12.2148
-0.688031
-17.3268
-11.8794
13.6357
2.24271
-14.4897
18.5759
-4.42588
-11.6455
18.3141
3.6661
12.4657
14.2017
-13.0672
-5.5604
19.7371
-9.87016
4.33481
4.39204
20.8398
-5.49476
22.7886
-14.7305
-9.87619
-2.19903
-4.19888
16.2741
-15.2167
14.652
-9.31149
9.64462
-6.83125
-2.81337
3.33053
-0.758802
13.6133
-16.185
0.0620533
12.9131
9.03239
-4.57305
-6.65837
1.51087
6.48544
-2.36129
-5.63502
8.84456
-7.33369
2.01331
2.29801
-12.7377
9.68092
-6.65231
9.01238
-8.29726
-17.3581
19.003
-6.28395
-18.1911
-15.2063
16.0394
-15.1958
-9.27925
-5.31694
-3.24953
-6.63985
-14.0273
-6.95488
1.64693
11.2484
1.44856
-14.3439
-16.9591
14.8205
3.78552
0.501339
-0.632213
-16.8283
-1.41808
-0.145933
16.3846
-1.36402
11.1943
5.8872
-22.083
17.9567
-1.76095
13.417
-12.2967
4.767
16.0074
-2.8442
-16.8111
3.64786
16.7646
-0.757175
-17.2659
-1.94439
19.0644
-0.76425
12.8172
5.54008
-1.4985
-26.1246
-9.09311
2.33643
18.9559
-1.34216
0.342994
1.18911
17.0025
15.5695
-19.9122
-1.14883
15.9612
16.5311
-17.2863
-19.8698
-18.1238
26.5215
11.472
-5.56616
-29.5273
15.2237
9.2943
-2.88058
-24.5375
5.97878
33.1547
-12.612
-28.412
-10.0523
16.8602
21.604
19.6622
-32.9785
5.33157
7.98474
-5.49949
31.1405
-29.4025
-4.97083
5.96129
-24.6347
0.950458
0.615775
-20.5354
-4.71511
34.1076
-27.8412
-5.65062
23.741
15.6982
-12.5904
30.8319
25.6227
-36.1188
-2.0944
5.33794
-22.0864
-3.78693
-23.6964
1.19313
2.70037
-4.00866
-3.08666
4.39495
-1.5944
1.455
2.83977
-0.603885
0.16963
-3.5744
5.20058
-0.0313967
-5.77307
5.15332
-4.56853
-5.3578
4.773
-2.03822
3.80744
3.3841
1.56796
0.311705
-4.91163
-2.91013
6.45449
0.537928
-20.873
13.8806
-5.77683
5.67133
6.56
10.6052
-0.728967
4.42453
-14.3008
14.1421
6.76879
-20.3729
-12.4419
12.8038
16.8369
-17.1987
-1.28913
-11.1528
-12.0971
9.59209
13.1102
-13.3862
9.70486
3.70824
13.6596
-8.97784
2.08702
-4.4517
26.8476
18.9128
0.90229
-2.73673
-14.2538
16.0882
-1.81871
-12.5089
15.2299
2.49192
1.35013
-17.9788
14.1368
-14.9467
15.6199
-14.9477
13.5611
6.32576
-12.13
-8.44955
-6.18316
-4.24509
-16.2724
5.57077
7.87683
-4.14939
2.35637
-6.08382
-18.4174
11.3465
-2.29102
-20.2758
-10.4282
-1.50315
-14.1193
-2.89018
-14.8854
1.38996
-15.8109
-11.9285
13.2096
-13.6666
5.40969
-4.95266
-6.93581
7.27148
12.874
8.51848
-2.4936
-19.6915
1.58267
9.46856
4.18024
-8.23911
19.5219
-2.78188
-7.69861
9.28128
-11.6349
1.59949
12.0466
-2.01127
-5.44282
-13.8906
-17.3214
9.38494
10.0301
-14.2426
-14.4059
18.6184
-0.319346
10.3495
-0.557213
10.6052
1.53871
-11.5867
2.12903
-16.9288
9.25648
9.1451
-7.79636
8.93714
-0.756963
11.4631
-9.16739
15.163
-13.791
0.311115
13.119
-13.828
0.397886
4.16006
-6.7703
17.7733
-0.701116
-12.7525
12.6179
0.835746
8.23602
-3.58963
-0.0177797
16.5936
-12.3944
-0.0390612
-0.240239
17.3994
-0.565644
0.601434
7.9457
12.9791
-4.521
-18.6767
17.559
-14.5584
15.6761
-11.5789
-2.95098
-4.14674
4.96789
-1.72532
14.3164
-26.3609
1.82474
9.97771
-22.4381
-15.5018
-11.542
17.9915
-1.48155
18.1936
-14.4867
-6.65791
11.8462
4.62208
-19.5949
9.87763
31.0234
-8.30692
-32.6901
9.97368
26.9888
-15.5603
18.8777
4.42465
-7.09095
-16.2114
12.6016
5.15175
1.12442
1.94879
-32.6938
-13.4864
13.8037
12.2843
-7.00785
-2.05391
15.7057
-20.8478
6.37076
12.3167
11.0043
-11.6794
-11.6416
-5.90143
14.4276
3.79056
-21.3711
4.05329
14.3959
2.92198
-9.98046
-0.386413
18.5229
-12.5379
2.03389
-8.01893
23.6669
-7.16515
2.02113
11.4184
0.291292
-23.389
8.35518
-2.83824
13.5278
4.95309
11.2908
-22.3756
11.3761
6.76585
-8.01297
-17.5896
-16.6227
20.9879
13.2244
1.57894
-10.8134
-8.2779
0.0438094
35.1883
-22.2485
-12.9836
32.5231
-11.9693
-20.51
5.20931
15.7572
14.2218
18.1502
19.5822
-21.5173
-6.39837
5.66718
11.2067
13.0287
-8.47827
-11.0242
2.26887
12.7452
-3.98989
-11.5276
-1.87571
2.3791
16.6871
-4.69599
-12.8942
0.903076
11.3884
-6.22888
-15.7567
17.261
6.09552
-7.59985