/*--------------------------------*- C++ -*----------------------------------*\
  =========                 |
  \\      /  F ield         | OpenFOAM: The Open Source CFD Toolbox
   \\    /   O peration     | Website:  https://openfoam.org
    \\  /    A nd           | Version:  10
     \\/     M anipulation  |
\*---------------------------------------------------------------------------*/
FoamFile
{
    format      ascii;
    class       volVectorField;
    location    "7";
    object      U;
}
// * * * * * * * * * * * * * * * * * * * * * * * * * * * * * * * * * * * * * //

dimensions      [0 1 -1 0 0 0 0];

internalField   nonuniform List<vector> 
75457
(
(4.99128 -0.38906 -0.786166)
(5.13497 -1.3025 -1.19667)
(7.38636 -0.064063 -0.594601)
(9.70438 -0.414621 -1.05758)
(4.36599 0.899219 -0.0155621)
(4.60125 1.08605 -0.113037)
(5.44996 -0.658346 -0.690696)
(5.17301 0.439756 -1.09659)
(10.8797 -0.714862 -1.12934)
(10.7232 -0.486317 -0.925996)
(10.9804 -0.309514 -0.96293)
(5.07356 0.213066 0.240264)
(5.21867 0.0381929 -0.160269)
(9.8799 -0.299543 -0.376437)
(11.8308 -0.439694 -0.238709)
(11.9272 -0.425246 -0.205374)
(12.2895 -0.453111 -0.347674)
(12.0727 -0.480468 -0.422505)
(12.0199 -0.45127 -0.226862)
(12.2938 -0.404567 -0.288049)
(12.112 -0.453668 -0.382007)
(12.2075 -0.459 -0.242756)
(11.9093 -0.449546 -0.220719)
(11.9141 -0.455175 -0.256571)
(12.1874 -0.479139 -0.220529)
(11.714 -0.494182 -0.418489)
(11.6546 -0.530859 -0.449422)
(11.0996 -1.0281 0.629642)
(10.8733 -0.953455 0.768576)
(11.0604 -1.00895 0.634049)
(11.1544 -0.919243 0.587726)
(10.7875 -0.934374 0.739471)
(10.7806 -0.896287 0.744662)
(11.357 -0.784029 0.525279)
(11.33 -0.774748 0.512387)
(11.4699 -0.6898 0.705285)
(11.4208 -0.803927 0.560352)
(10.7422 -0.921102 0.794197)
(10.8405 -0.881182 0.773549)
(11.3437 -0.711846 0.539022)
(11.3728 -0.703998 0.545608)
(11.3406 -0.721308 0.574573)
(11.4273 -0.738494 0.713792)
(12.6963 0.716421 0.511273)
(12.4901 0.754686 0.438341)
(12.8271 0.655196 0.48888)
(12.8409 0.631515 0.52211)
(12.6635 0.698503 0.489753)
(12.0739 0.26075 0.126777)
(12.3516 0.383772 0.215211)
(12.3674 0.394968 0.193096)
(12.1532 0.27938 0.17601)
(11.8631 0.303002 0.0428074)
(12.2741 0.374277 0.190852)
(12.399 0.358788 0.255929)
(12.4023 0.360496 0.223635)
(11.9792 0.383322 0.123347)
(12.0022 0.382952 0.105056)
(12.0389 0.260108 0.0797973)
(11.8272 0.29194 0.0311414)
(11.9205 0.343674 0.0865919)
(12.1365 0.279059 0.131561)
(9.96309 0.0564904 -0.320389)
(9.96693 0.0670037 -0.34595)
(10.1531 0.0873027 -0.272353)
(9.9501 0.061578 -0.312186)
(9.96867 0.0558659 -0.29195)
(9.91911 0.0347461 -0.287747)
(9.93983 0.0414778 -0.224105)
(9.83288 0.0273945 -0.249111)
(9.84583 0.00849664 -0.245646)
(9.79229 0.00131748 -0.258547)
(9.97385 0.0481247 -0.233034)
(10.1424 0.0891877 -0.27171)
(9.94924 0.04839 -0.210814)
(10.125 0.079304 -0.239152)
(10.1123 0.0712996 -0.226562)
(0.3236 1.00414 0.748163)
(-1.16204 1.29889 -0.086942)
(-1.16703 1.07901 -0.226603)
(1.44821 1.14372 0.947803)
(-1.08166 1.571 0.144463)
(0.00398831 0.643139 0.141771)
(-0.621263 0.571205 -0.177502)
(-0.453014 1.33829 -0.562649)
(-0.964293 1.45474 -0.727359)
(-0.483698 1.08159 -0.503222)
(-0.135591 0.834292 -0.744283)
(1.06483 0.815549 -0.128086)
(1.47776 1.05148 0.324294)
(0.0713177 0.866232 -0.231181)
(-0.453658 0.708237 -0.354602)
(0.122409 1.17849 0.613265)
(-0.609752 1.06743 0.0113675)
(12.4426 -0.272277 -0.0181083)
(12.8259 -0.276827 -0.0213597)
(12.8252 -0.280643 -0.0209916)
(12.8457 -0.279964 -0.0151986)
(12.2251 -0.270616 -0.0174803)
(12.4791 -0.268763 -0.0198536)
(12.4777 -0.279507 0.00477205)
(12.3385 -0.260315 -0.0166968)
(10.0171 -0.00994948 -0.0201356)
(10.0272 -0.00924132 -0.0170886)
(10.0207 -0.0148992 -0.0224181)
(10.021 -0.0193344 -0.0157104)
(10.0119 -0.0173897 -0.00683041)
(10.0234 -0.0172683 -0.00605071)
(9.85496 0.000688417 -0.0206372)
(9.93351 -0.0144457 -0.0151531)
(9.945 -0.0181595 -0.0109912)
(9.90179 -0.0186928 -0.00166766)
(9.87085 -0.0259292 -0.0231423)
(10.7324 0.115855 0.0661533)
(10.7694 0.139148 0.18458)
(10.3712 0.0975252 0.111103)
(10.3594 0.0332187 0.0378315)
(10.7472 0.0875836 0.202043)
(10.6229 0.151985 0.114223)
(10.5235 0.201081 -0.0209597)
(10.8356 0.107413 0.264391)
(10.8282 0.131995 0.272946)
(10.7268 0.129813 0.266589)
(10.5316 0.153908 0.125337)
(10.4347 0.126759 0.0883307)
(10.4795 0.123531 0.13952)
(10.5309 0.166038 0.0549247)
(10.4747 0.0936452 0.148415)
(10.5128 0.0587106 0.0812679)
(10.6165 0.117598 0.225142)
(10.7091 0.116231 0.242428)
(11.2816 0.0071622 0.346014)
(11.3536 0.0798691 0.299814)
(11.3545 0.0561328 0.328615)
(11.2844 0.0344774 0.299182)
(11.2786 0.0197934 0.288761)
(11.2728 0.0799936 0.306351)
(11.2035 0.0381018 0.288239)
(11.2101 0.028264 0.328685)
(11.1575 -0.0073064 0.303726)
(11.8962 0.0366967 0.178209)
(11.9023 0.0229548 0.198133)
(11.7941 0.0158454 0.230177)
(11.9058 0.031838 0.149664)
(11.9387 0.0207524 0.16865)
(11.6359 0.0248725 0.11404)
(11.8091 0.00599977 0.23889)
(11.8418 -0.00424542 0.20423)
(12.7612 0.0332366 0.00823779)
(12.8548 0.0485452 0.0394034)
(12.6244 0.0143088 -0.0535449)
(12.6473 0.0827678 0.0217962)
(13.0589 0.0391082 0.136505)
(13.0061 0.0814865 0.180708)
(12.825 0.0466941 0.0814352)
(12.6594 0.0783687 0.0212124)
(12.6298 0.0660602 0.0677142)
(12.5661 0.0643887 -0.000487435)
(12.9828 0.0737278 0.167565)
(12.6521 0.0821438 0.0311022)
(12.6676 0.0279105 -0.00582649)
(12.967 0.0730012 0.208849)
(12.5857 0.0720878 0.0653169)
(11.5034 1.08665 0.88152)
(11.2612 1.24589 0.869543)
(11.1741 1.30892 0.831231)
(11.3626 1.218 0.781303)
(11.2299 1.11246 0.741273)
(11.6982 0.950735 0.848981)
(11.5388 0.761404 0.543535)
(11.4163 0.885397 0.670801)
(11.543 1.27731 1.00635)
(11.428 0.961794 0.644223)
(11.5317 1.07712 0.681926)
(11.7917 1.14973 0.885631)
(11.6214 0.938347 0.589012)
(12.8851 -0.0762537 -0.0727138)
(13.0071 -0.0374178 -0.0898611)
(12.9044 -0.0132975 -0.0406407)
(12.7231 -0.0405152 -0.0126769)
(12.7533 -0.0207198 -0.00190661)
(12.6153 -0.0271724 -0.0401375)
(12.8551 -0.0771198 -0.0381619)
(12.7945 -0.0877906 -0.0140479)
(12.6541 -0.0952057 -0.000851931)
(12.9981 -0.0425836 -0.102532)
(12.74 -0.0432345 -0.0313234)
(12.8832 -0.0694253 -0.0577682)
(12.6368 -0.0391571 -0.0154841)
(12.5935 -0.0323727 0.00122615)
(10.1417 -0.0912705 -0.753745)
(9.61083 -0.259916 -0.919175)
(9.4631 -0.0799172 -1.01751)
(8.80336 -0.130127 -0.835694)
(8.27674 -0.220384 -0.928162)
(8.64812 -0.103242 -0.89849)
(11.8623 0.361363 -0.614221)
(11.7064 0.225628 -0.465799)
(11.788 0.1995 -0.43504)
(11.8708 0.230116 -0.471846)
(11.9894 0.253423 -0.470687)
(11.6288 0.178213 -0.186827)
(11.4691 0.292977 -0.139853)
(11.5193 0.285263 -0.110921)
(11.6421 0.310201 -0.228847)
(11.892 0.305196 -0.231994)
(11.74 0.252085 -0.0540733)
(11.7972 -0.00248154 -0.0978385)
(11.8444 -0.0178184 -0.0404046)
(11.8891 -0.0257046 -0.0361581)
(12.1107 -0.050385 -0.06148)
(12.0366 -0.000670992 -0.115283)
(11.7038 -0.0143392 -0.0580078)
(11.7115 0.045156 -0.0837622)
(12.026 -2.15435e-05 -0.130859)
(11.9117 -0.00457364 -0.0825861)
(11.7826 -0.0346575 -0.024209)
(12.0208 0.00295402 -0.127746)
(11.6771 0.0149933 -0.0916241)
(11.6377 0.00241851 -0.0160964)
(11.6553 -0.00258556 -0.0425067)
(11.8142 0.357272 -0.0310177)
(11.8827 0.372319 0.0073915)
(11.7164 0.351184 -0.0278569)
(12.0448 0.321434 -0.00957782)
(11.91 0.316607 0.0339019)
(11.8166 0.381233 -0.0325069)
(11.9049 0.379417 -0.00813601)
(11.8669 0.420352 -0.0551714)
(11.7649 0.406135 -0.0190254)
(12.1548 0.380582 -0.0862796)
(12.1903 0.35163 -0.074228)
(11.928 0.377846 -0.0198697)
(11.919 0.396265 -0.0439366)
(11.9779 0.373418 -0.00603444)
(12.2012 0.00103359 -0.275088)
(12.0047 -0.00370474 -0.303482)
(12.3748 -0.0601567 -0.287863)
(12.2996 -0.0435409 -0.231046)
(12.3165 -0.0569259 -0.225668)
(12.4023 -0.0627351 -0.295589)
(12.0967 -0.0089068 -0.230097)
(11.9851 0.0221713 -0.26861)
(12.0129 -0.00966346 -0.294777)
(11.9293 -0.0105976 -0.287273)
(12.1153 -0.0292776 -0.314038)
(12.0572 -0.0172634 -0.219895)
(12.0603 -0.0107545 -0.203799)
(11.9793 -0.00246202 -0.304163)
(11.9133 -0.00688182 -0.283242)
(11.9936 -0.00408978 -0.214605)
(11.9903 0.017132 -0.271525)
(10.5283 -0.0763103 0.0750749)
(10.2532 0.0277429 -0.0162337)
(10.3619 0.0236091 -0.0177305)
(10.3317 0.0444517 -0.00154462)
(10.5435 -0.116231 0.0520917)
(10.6948 -0.148168 0.026388)
(10.5877 -0.2263 0.201716)
(11.8112 -0.183838 0.179404)
(11.877 -0.267129 0.175691)
(11.8214 -0.234062 0.173957)
(10.6082 -0.0853538 0.09059)
(10.5025 -0.169086 0.106363)
(11.9998 0.21298 -0.148316)
(11.2703 0.143749 0.0132346)
(11.672 0.0845339 -0.232999)
(11.4012 -0.000709065 -0.126774)
(11.3359 0.133999 0.0265668)
(11.5354 -0.00652865 -0.119038)
(11.4803 0.00512949 -0.128165)
(11.4439 0.131108 -0.00878615)
(11.8582 0.178539 -0.29785)
(11.8045 0.169095 -0.282813)
(11.9283 0.226927 -0.155599)
(11.8215 0.169936 -0.282447)
(11.9213 0.211966 -0.134945)
(12.2328 0.0333775 0.111193)
(12.1668 0.00525086 0.121755)
(12.3569 0.0500778 0.133783)
(12.3028 -0.00214258 0.147476)
(12.2696 -0.016708 0.15268)
(12.1964 0.0263264 0.0955571)
(12.1994 -0.00351385 0.109869)
(12.2823 0.0164859 0.123201)
(12.2548 -0.00167166 0.132891)
(12.2697 0.04515 0.104908)
(12.6255 0.0968919 0.129158)
(12.5505 0.0820943 0.128742)
(12.2966 0.0321527 0.101486)
(12.4912 0.0772038 0.107834)
(12.477 0.0736667 0.101015)
(9.59013 0.0749896 0.0266984)
(9.53086 0.059774 0.0372466)
(9.41402 -0.0114309 0.00489311)
(9.37615 -0.000607294 0.000858363)
(9.46589 0.0605221 -0.0147794)
(9.60628 0.0599055 0.0125149)
(9.62664 0.074324 0.0185892)
(9.42657 0.0386189 0.00874767)
(9.51361 0.0247849 0.0123494)
(6.18073 -0.144722 -1.952)
(6.03872 -0.0794634 -1.90855)
(6.03357 -0.388394 -1.90335)
(6.08477 -0.41932 -1.92466)
(5.75053 -0.227959 -1.97232)
(5.64799 -0.0550566 -1.97503)
(5.66257 -0.369246 -2.18552)
(5.66128 -0.521683 -2.03745)
(5.80349 -0.0816315 -2.0681)
(5.75427 -0.447188 -2.21145)
(5.74959 -0.541047 -2.09348)
(6.09932 -0.359542 -2.03654)
(6.05313 -0.501668 -2.02773)
(2.76707 -0.092508 -0.296644)
(0.387261 0.312519 -0.140283)
(1.02424 0.13951 -0.464199)
(2.97993 -0.104566 -0.371442)
(3.47161 -0.198214 -0.29947)
(3.04865 -0.20828 -0.203994)
(3.12389 -0.199943 -0.287285)
(0.187069 0.0423376 -0.652913)
(-0.0894243 0.522581 -0.280729)
(0.818847 0.11527 0.0887246)
(1.07581 0.029187 -0.12793)
(12.355 0.13481 0.142666)
(12.4628 0.169445 0.152278)
(12.4708 0.179359 0.140286)
(12.19 0.21482 0.0646518)
(12.1206 0.206374 0.0505176)
(12.1737 0.148076 0.0815435)
(12.1909 0.186727 0.0717248)
(12.1199 0.191008 0.0536387)
(12.0461 0.183947 0.055214)
(12.3351 0.119025 0.131673)
(12.3787 0.135201 0.11617)
(11.9127 0.0777513 0.0407354)
(11.8935 0.0762468 0.0691816)
(11.9366 0.131158 0.0155003)
(12.0867 0.136797 0.078701)
(11.8641 0.0743187 0.0535427)
(11.8542 0.0721613 0.0302373)
(-1.36038 -0.152583 -1.33052)
(-0.744168 -1.12426 -0.623288)
(-1.11577 -0.458495 -0.760117)
(-0.575075 -1.80546 -0.331526)
(-2.7779 -0.140148 -0.378007)
(-2.351 -0.411323 -0.718513)
(-2.93077 0.269003 -0.530537)
(-0.172195 -1.75808 -0.104514)
(-1.58435 -0.718989 -0.707595)
(-1.47014 -1.08098 -0.193921)
(-1.53002 -1.17997 -0.1501)
(10.9112 0.229611 0.0252487)
(10.9212 0.237582 -0.00194281)
(10.7307 0.164004 0.0086978)
(10.4825 0.0536522 0.0266948)
(10.5277 0.172015 -0.0238908)
(10.4334 0.0895261 -0.00787243)
(10.4147 0.0809859 -0.0133356)
(10.3821 0.0811382 0.0219111)
(10.612 0.144855 0.0530084)
(10.251 0.0178554 0.017916)
(10.5786 0.144023 0.0396675)
(11.1303 0.154833 0.137029)
(11.1138 0.157862 0.116728)
(11.157 0.162693 0.138717)
(11.1332 0.153849 0.109184)
(10.9257 0.143534 0.0693451)
(10.9861 0.153618 0.0974872)
(10.7827 0.177504 0.0406165)
(10.8508 0.182415 0.0599201)
(11.0113 0.177998 0.0895016)
(10.8899 0.171042 0.0631137)
(10.6824 0.175387 0.000246055)
(10.7456 0.177735 0.0100943)
(10.8342 0.133024 0.0504964)
(10.9015 0.151669 0.0635194)
(10.8047 0.1516 0.0513264)
(5.03683 -0.278059 -0.242711)
(4.8017 -0.172574 -0.374737)
(4.79004 -0.10749 -0.417625)
(5.4473 -0.0577314 -0.448227)
(4.33573 -0.0512851 -0.451929)
(12.1374 -0.0472849 0.58935)
(12.2512 -0.0783356 0.580815)
(12.361 -0.101114 0.650918)
(12.2943 -0.0888735 0.647448)
(12.6432 -0.160002 0.633955)
(12.6106 -0.174039 0.65704)
(12.4261 -0.104688 0.613929)
(7.9471 2.52403 -0.130566)
(7.51376 2.69073 -0.639613)
(8.88044 2.29067 -0.382688)
(8.72808 2.56548 -0.556081)
(7.98437 2.97629 -0.202607)
(7.47467 3.01503 -0.739782)
(8.09043 2.25953 -0.10089)
(7.58704 2.36498 -0.725614)
(8.24023 3.02374 -1.38938)
(7.36918 3.08654 -1.45835)
(8.30157 2.14563 -0.198374)
(7.97739 2.15082 -0.799008)
(8.32748 2.69775 -1.29672)
(7.78727 2.65903 -1.13179)
(8.95753 2.20177 -0.387664)
(8.49195 2.44955 -1.22138)
(7.92503 2.4116 -1.06556)
(8.98625 2.24255 -0.591983)
(9.64271 2.07512 -0.420139)
(9.79977 1.91393 -0.491444)
(9.63156 1.95673 -0.714701)
(9.56182 2.04645 -0.81044)
(9.56895 1.77305 -0.702395)
(9.49476 2.07601 -0.798796)
(9.58735 1.91583 -0.286688)
(9.51698 2.08834 -0.344105)
(9.45556 2.19843 -0.680183)
(9.04149 2.02421 -0.624975)
(9.34882 1.70808 -0.535376)
(9.31213 1.88285 -0.335128)
(9.02706 2.22297 -0.29917)
(10.2522 3.17239 -1.07094)
(10.598 2.74625 -0.998742)
(11.0074 2.08002 -0.448406)
(10.9189 1.97937 -0.448429)
(10.3958 2.46089 -0.963233)
(10.6197 2.45115 -0.882252)
(10.7494 2.18516 -0.60224)
(10.7214 2.11388 -0.601829)
(10.5032 3.16605 -0.921556)
(10.8314 2.90174 -0.773892)
(10.0071 2.81453 -1.00048)
(10.0822 2.90739 -0.988181)
(10.7673 2.61358 -0.389749)
(10.6813 2.41264 -0.360762)
(10.9954 2.34244 -0.44647)
(10.4441 2.15543 -0.675033)
(10.1285 2.61688 -0.643311)
(10.1951 2.74386 -0.678824)
(10.4955 2.70542 -0.419328)
(10.4875 2.56812 -0.441272)
(10.4279 2.83227 -0.601896)
(10.347 2.5008 -0.509682)
(13.0863 -0.0334383 0.253317)
(12.8146 -0.00916895 0.221274)
(12.8888 -0.0589307 0.230487)
(12.8159 -0.00530053 0.231147)
(12.8983 -0.058872 0.232716)
(13.1284 -0.0158853 0.26704)
(12.9507 0.0122688 0.258883)
(13.1445 -0.050884 0.216472)
(12.9089 -0.0132338 0.229299)
(13.0918 -0.0164905 0.263151)
(13.0545 -0.0852319 0.219078)
(12.952 0.000868577 0.250924)
(13.1299 -0.0678598 0.211802)
(12.9768 -0.00924626 0.246299)
(13.1466 -0.0791354 0.208573)
(13.131 -0.0418353 0.232527)
(5.13697 -0.555761 -0.17433)
(-0.437555 -1.24741 -0.652237)
(2.41502 1.00304 0.104798)
(1.89887 1.75145 0.00542136)
(10.7537 0.707429 -1.55774)
(10.9343 0.864762 -1.93342)
(4.85443 1.31634 -0.348116)
(5.54045 0.986424 -0.247367)
(11.3224 0.346895 -1.27461)
(11.4952 0.391001 -1.48553)
(-0.155376 -0.174545 0.566399)
(7.08164 -0.197578 -0.691087)
(4.94221 0.0791191 0.130927)
(5.60118 1.63278 -0.134432)
(10.7758 0.750279 -1.32305)
(11.4599 0.654709 -1.13673)
(12.5268 0.116451 0.304128)
(12.5793 0.161697 0.293829)
(12.4668 0.114765 0.24353)
(12.4238 0.116277 0.20551)
(12.3884 0.125493 0.214759)
(12.4021 0.116908 0.26321)
(12.5216 0.123711 0.256739)
(12.5864 0.1345 0.294394)
(12.5119 0.165033 0.302821)
(12.4703 0.105065 0.306438)
(12.3324 0.133446 0.205304)
(12.3114 0.0999112 0.155487)
(12.3675 0.120557 0.22505)
(12.3971 0.118128 0.266346)
(12.3239 0.100003 0.148323)
(12.3912 0.105908 0.161249)
(12.4864 0.107403 0.195048)
(12.4332 0.118426 0.207692)
(9.74567 1.73884 -0.219822)
(9.42557 1.6707 0.525854)
(9.3343 2.04126 0.684734)
(9.71648 1.907 0.0344971)
(9.61071 2.0547 -0.0950828)
(9.22691 2.50996 0.14184)
(8.71681 2.70367 0.101372)
(9.37285 1.70755 -0.218037)
(9.53738 2.06926 0.44828)
(9.01262 1.91684 0.491903)
(8.86165 2.18967 0.525032)
(8.8034 2.66621 0.227853)
(9.30178 2.40059 0.392347)
(9.72699 1.77563 0.232998)
(9.67188 1.60334 0.231125)
(9.63572 1.63747 -0.159283)
(10.5822 0.652762 -0.307555)
(10.6527 0.654872 -0.259227)
(10.6102 0.59989 -0.29327)
(10.6149 0.766164 -0.333878)
(10.72 0.830908 -0.243232)
(10.5538 0.547234 -0.310356)
(10.4892 0.630912 -0.378515)
(10.5267 0.718516 -0.40755)
(10.5876 0.73543 -0.401023)
(10.5206 0.725605 -0.442249)
(10.5766 0.734421 -0.383221)
(10.6487 0.739274 -0.426516)
(10.596 0.729041 -0.467648)
(10.7 0.756419 -0.371893)
(10.6418 0.726739 -0.362485)
(10.4928 0.595719 -0.344225)
(10.4595 0.62547 -0.400765)
(11.6499 -0.0391547 0.705373)
(11.6587 -0.0135335 0.677094)
(11.7788 0.136694 0.579321)
(11.7824 0.168505 0.593648)
(11.775 0.178385 0.596227)
(11.7713 0.134422 0.573884)
(11.6649 -0.00254794 0.766556)
(11.6434 0.00555773 0.792091)
(11.7777 0.298082 0.714208)
(11.7666 0.386115 0.859717)
(11.6336 0.00224948 0.632918)
(11.7799 0.140206 0.57956)
(11.7887 0.301701 0.71728)
(11.7868 0.335363 0.797459)
(11.6384 0.0233034 0.600342)
(11.8223 0.300854 0.780485)
(11.7072 0.0190155 0.728666)
(10.382 -1.91402 0.786671)
(10.7266 -1.8667 0.744825)
(10.8533 -1.83143 0.858469)
(10.2355 -1.96813 0.85858)
(10.8555 -1.88581 0.597876)
(10.1522 -2.01492 0.806194)
(10.4455 -1.96839 0.345376)
(10.1518 -2.09391 0.383722)
(10.9173 -1.85622 0.635944)
(10.9831 -1.8779 0.743989)
(10.9107 -1.8252 0.864621)
(10.2949 -2.06374 0.812369)
(9.997 -2.23193 0.261431)
(10.3752 -2.06594 0.259148)
(10.2635 -2.24368 0.212137)
(10.625 -1.90819 0.310574)
(9.90803 -2.34249 0.320963)
(9.95926 -2.3465 0.267331)
(12.0847 -0.808101 0.367035)
(12.2581 -0.687778 0.395388)
(12.2178 -0.638944 0.369269)
(12.1619 -0.581145 0.191077)
(11.9985 -0.724667 0.182571)
(12.2061 -0.506586 0.314849)
(12.0505 -0.811524 0.371106)
(12.1518 -0.682792 0.378058)
(12.1169 -0.659397 0.367784)
(12.1683 -0.489195 0.317467)
(12.0798 -0.621086 0.188061)
(12.0401 -0.68143 0.327877)
(12.0822 -0.56081 0.247516)
(11.9755 -0.837764 0.299755)
(11.9759 -1.17288 0.620998)
(11.9965 -1.10039 0.6461)
(11.9695 -1.03534 1.01115)
(12.2507 -0.815614 0.984428)
(12.0029 -1.00594 1.03129)
(11.9755 -1.07098 1.02315)
(11.8365 -1.24849 0.781524)
(12.0397 -1.0764 0.603295)
(12.1007 -0.988648 0.6609)
(11.9504 -1.22123 0.945151)
(11.9617 -1.17022 0.914384)
(11.8969 -1.22601 0.791966)
(12.0473 -1.07643 0.649283)
(12.2704 -0.829973 0.747468)
(12.2752 -0.837213 0.721866)
(11.9445 -1.17124 0.7262)
(12.2624 -0.869553 0.797248)
(12.0498 -1.067 0.841622)
(10.6678 3.28195 -0.938782)
(11.0368 3.20769 -0.838416)
(11.0284 2.96706 -0.780804)
(10.4436 3.24276 -0.713944)
(10.7552 3.4384 -0.725653)
(11.3727 2.92142 -0.493085)
(11.2212 2.5577 -0.447041)
(11.0483 3.38208 -0.157266)
(11.2606 3.20268 -0.123152)
(10.5954 3.30212 -0.316611)
(11.121 2.50405 -0.393724)
(11.1132 3.53296 -0.349198)
(11.7124 -0.132074 0.999817)
(12.251 -0.10616 0.991628)
(11.4567 -0.325393 0.932834)
(12.2052 -0.0900604 0.974255)
(11.5651 -0.0796808 1.01865)
(11.9331 -0.280449 0.845488)
(11.4962 -0.23455 0.936097)
(11.545 -0.292804 0.874023)
(11.7961 -0.307742 0.879291)
(12.4604 -0.0883392 0.820935)
(12.5776 -0.0988103 0.731272)
(12.4146 -0.121437 0.771427)
(12.2341 -0.217515 0.691785)
(12.3788 -0.221592 0.67856)
(12.5514 -0.107946 0.723537)
(12.3558 -0.208788 0.669258)
(12.2382 -0.180688 1.16222)
(12.0621 -0.0922821 1.12145)
(12.152 -0.147352 1.13708)
(12.0365 -0.084845 1.07984)
(11.7645 -0.127918 1.2766)
(11.6806 -0.32382 1.36946)
(11.2998 -0.407847 1.37751)
(11.7168 -0.0925499 1.36009)
(11.7576 -0.113558 1.24443)
(12 -0.0757276 1.09721)
(12.0909 -0.13474 1.12478)
(12.1097 -0.306716 1.20574)
(11.3762 -0.438069 1.33357)
(11.9836 -0.26324 1.16804)
(11.8786 -0.405817 1.21419)
(11.8983 -0.392301 1.2229)
(12.3717 0.488842 0.555722)
(12.4368 0.50484 0.578503)
(12.4883 0.434806 0.524518)
(12.3002 0.557379 0.38424)
(12.1002 0.73709 0.515843)
(12.3269 0.305131 0.486453)
(12.2554 0.316092 0.47581)
(12.5099 0.600872 0.513126)
(12.3957 0.678491 0.58208)
(12.3379 0.665752 0.407641)
(12.186 0.751879 0.513331)
(12.3115 0.617531 0.586993)
(12.252 0.57404 0.560054)
(12.134 0.538117 0.581428)
(12.2222 0.456301 0.468944)
(12.4006 0.319543 0.489813)
(12.3632 0.379971 0.447864)
(12.2861 0.375808 0.467405)
(12.4003 0.552469 0.451015)
(11.0495 -0.329861 -0.80394)
(11.0075 -0.341239 -0.791573)
(11.3191 -0.352584 -0.703338)
(10.6937 -0.388253 -0.826232)
(11.0979 -0.319756 -0.796322)
(10.7456 -0.416603 -0.796679)
(11.0116 -0.419753 -0.807421)
(11.488 -0.317297 -0.740153)
(10.9659 -0.435553 -0.725153)
(11.6416 -0.360661 -0.607829)
(10.7667 -0.442407 -0.788681)
(11.1071 -0.468931 -0.73068)
(11.1548 -0.490315 -0.652217)
(11.1439 -0.504414 -0.672934)
(9.43478 -0.813578 -0.389727)
(9.42509 -0.808495 -0.395822)
(9.88319 -0.773416 -0.271652)
(9.56453 -0.800627 -0.289564)
(9.68374 -0.785968 -0.331512)
(9.68432 -0.765242 -0.337755)
(10.1883 -0.665077 -0.283492)
(10.0551 -0.685257 -0.544382)
(9.93993 -0.681747 -0.53246)
(10.5835 -0.587396 -0.378616)
(10.453 -0.6134 -0.358728)
(9.54466 -0.784143 -0.544508)
(10.3436 -0.590067 -0.389185)
(10.1899 -0.635593 -0.531686)
(10.1726 -0.617814 -0.520927)
(10.5841 -0.600303 -0.389588)
(10.5031 -0.601862 -0.370167)
(10.2436 -0.585539 -0.483744)
(11.6376 1.32885 -0.191478)
(11.2316 1.43313 -0.608622)
(10.9155 1.56258 -0.862293)
(12.2914 0.658322 -0.302708)
(12.2038 0.875564 -0.267157)
(11.6369 1.15178 -0.524357)
(11.8522 1.07495 -0.211723)
(12.4075 0.612635 -0.295369)
(12.2386 0.881744 -0.238739)
(11.2439 1.13664 -0.832389)
(11.7768 0.867737 -0.644883)
(4.93476 -1.28872 -0.795845)
(5.15855 -1.33757 -0.759074)
(4.80501 -1.13046 -0.76481)
(4.62967 -1.03264 -0.791942)
(3.25383 -0.510729 -1.09951)
(2.5566 -0.411265 -0.760653)
(2.63035 -0.170694 -1.15848)
(2.24554 -0.303823 -0.929723)
(5.71148 -1.49368 -0.807951)
(6.1818 -1.57279 -0.743871)
(4.88968 -1.30004 -0.673972)
(4.38283 -1.04692 -0.675718)
(4.25768 -0.905718 -0.676652)
(3.54125 -0.849652 -0.650598)
(3.65242 -0.650597 -0.643041)
(3.62802 -0.738833 -0.635139)
(2.97922 -0.458503 -0.876534)
(5.93631 -1.5051 -0.723694)
(5.61169 -1.42415 -0.762326)
(6.03003 -1.58964 -0.708125)
(5.30663 -1.30161 -0.912446)
(13.2893 -0.140102 0.277996)
(13.2948 -0.141943 0.245091)
(13.2903 -0.0794872 0.297057)
(13.3143 -0.105894 0.259632)
(13.2912 -0.0910212 0.304682)
(13.2795 -0.146037 0.271903)
(13.2808 -0.144807 0.284516)
(13.2781 -0.0693325 0.277666)
(13.2468 -0.0608639 0.303755)
(13.1637 -0.0747194 0.327539)
(13.1766 -0.0909645 0.30574)
(13.122 -0.0742766 0.334998)
(13.2779 -0.0780596 0.271005)
(13.164 -0.0668144 0.322668)
(13.0877 -0.0603773 0.311788)
(13.1892 -0.0728235 0.287081)
(13.0921 -0.0494755 0.310955)
(12.0839 0.191872 1.15826)
(11.9519 0.169698 1.184)
(11.7304 0.090511 1.32524)
(11.1682 0.120008 1.34984)
(12.0647 0.196196 1.19839)
(11.9587 0.167816 1.2577)
(11.143 0.581605 0.851118)
(11.1589 0.396354 1.05668)
(11.8305 0.118433 1.30916)
(11.1483 0.201509 1.29268)
(11.274 0.394237 1.29065)
(8.27287 -0.0708675 0.283925)
(8.29608 -0.00271909 0.15032)
(8.18304 0.0447847 0.201521)
(6.47027 -0.0914411 -0.0289358)
(7.4036 -0.0902136 0.233683)
(5.4549 -0.0167666 -0.0225769)
(4.81891 0.0137927 -0.0568169)
(5.8228 -0.0974215 0.206042)
(7.22401 0.0662542 0.368572)
(7.56993 -0.018296 0.236815)
(5.31969 0.0595946 0.126219)
(5.91505 0.0413457 0.127977)
(5.67761 0.0744708 0.238715)
(12.1037 -0.349664 -0.365915)
(12.0464 -0.321439 -0.351151)
(12.1477 -0.369026 -0.26992)
(12.1908 -0.366826 -0.267865)
(12.0282 -0.423022 -0.383311)
(12.0165 -0.404179 -0.365389)
(11.995 -0.379786 -0.439422)
(11.9574 -0.377967 -0.447259)
(12.1069 -0.32096 -0.25444)
(12.1991 -0.344278 -0.27611)
(11.9685 -0.322231 -0.367896)
(11.9989 -0.30706 -0.344765)
(12.2262 -0.350409 -0.24227)
(11.9609 -0.393894 -0.407388)
(12.1569 -0.335916 -0.220893)
(12.1187 -0.336625 -0.25463)
(11.9601 -0.322129 -0.334755)
(12.0044 -0.313874 -0.302469)
(12.0932 -0.330955 -0.242855)
(12.0988 -0.333925 -0.229175)
(12.07 -0.333055 -0.262337)
(11.993 -0.354191 -0.336906)
(11.8748 -0.461277 -0.545419)
(12.3818 -0.420494 -0.472286)
(11.6499 -0.356196 -0.635049)
(12.4213 -0.318543 -0.507239)
(12.4393 -0.437507 -0.46912)
(11.4169 -0.476392 -0.551109)
(11.5849 -0.3095 -0.650832)
(12.4221 -0.312836 -0.506738)
(11.9977 -0.32146 -0.609792)
(11.3864 -0.480287 -0.543872)
(11.9259 -0.445547 -0.463675)
(11.9738 -0.465276 -0.493432)
(11.2279 -0.372556 -0.702066)
(12.3723 -0.330016 -0.5238)
(11.9756 -0.313357 -0.618695)
(11.0951 -0.396008 -0.75006)
(11.594 -0.34273 -0.734231)
(12.132 -0.403679 -0.553945)
(12.4117 -0.413844 -0.487679)
(12.3765 -0.394555 -0.513414)
(12.5391 0.493196 0.300969)
(12.4166 0.536806 0.305511)
(12.3762 0.563846 0.400317)
(12.4092 0.54295 0.491843)
(12.5021 0.478372 0.28695)
(12.4245 0.514457 0.303997)
(12.3649 0.536713 0.502579)
(12.3021 0.562025 0.433465)
(12.5751 0.463774 0.407881)
(12.5313 0.424093 0.486207)
(12.5771 0.433185 0.442063)
(12.4966 0.458502 0.323274)
(12.4562 0.451414 0.319897)
(12.4016 0.507158 0.312997)
(12.601 0.437506 0.447414)
(12.5598 0.42553 0.511626)
(12.4823 0.414701 0.432071)
(12.365 0.493121 0.313198)
(12.2706 0.53378 0.438905)
(12.3141 0.524236 0.529311)
(12.2849 0.491331 0.43874)
(12.2652 0.519634 0.492941)
(11.2199 0.132283 1.06833)
(11.2853 0.222395 1.09083)
(12.2516 0.182912 0.983299)
(12.201 0.216996 0.970076)
(12.0792 0.146606 1.06607)
(11.9902 0.199623 1.10302)
(12.0824 0.148749 1.01455)
(12.0501 0.130637 1.06541)
(11.8503 0.109711 1.03941)
(11.3044 0.11451 1.03307)
(11.2441 0.0752441 1.01258)
(11.367 0.128452 0.995984)
(12.0478 0.272907 1.01321)
(12.1042 0.239426 0.910937)
(12.1786 0.195991 0.935094)
(11.4586 0.144622 1.00779)
(11.7069 0.221181 0.950036)
(12.4409 0.53351 0.815816)
(12.4499 0.612451 0.795982)
(12.6863 0.317761 0.751306)
(12.6463 0.425686 0.707926)
(12.6961 0.354137 0.722463)
(12.813 0.325744 0.7261)
(12.8399 0.299478 0.690106)
(12.7312 0.513642 0.63914)
(12.695 0.501745 0.647807)
(12.6511 0.608308 0.633231)
(12.7224 0.586107 0.636773)
(12.8305 0.37056 0.688424)
(12.7232 0.634892 0.643084)
(12.6508 0.637163 0.640361)
(10.9909 0.787478 -0.46415)
(10.927 0.725083 -0.31533)
(10.8717 0.678709 -0.311002)
(10.9331 0.7242 -0.489805)
(10.8649 0.721491 -0.492917)
(10.9751 0.589243 -0.351686)
(10.9144 0.528321 -0.320363)
(11.0148 0.646928 -0.364595)
(10.9725 0.584584 -0.360555)
(10.898 0.536248 -0.327708)
(13.0681 -0.200322 0.515568)
(13.064 -0.226396 0.514007)
(12.9843 -0.170302 0.580327)
(12.9888 -0.168434 0.535813)
(13.064 -0.270751 0.549152)
(13.0527 -0.279328 0.56218)
(13.0212 -0.183737 0.54273)
(12.9922 -0.146656 0.556129)
(13.045 -0.269602 0.566648)
(12.9705 -0.143957 0.588514)
(12.9871 -0.180049 0.619518)
(12.9797 -0.151236 0.624167)
(12.9726 -0.125647 0.591958)
(13.0096 -0.235092 0.612843)
(12.985 -0.123525 0.591952)
(12.9841 -0.14498 0.616473)
(13.0063 -0.229938 0.606051)
(8.37086 0.191155 0.156583)
(8.28793 0.176242 0.206687)
(8.19326 0.226376 0.265245)
(7.64484 0.0312438 0.0593607)
(7.64003 0.0670545 -0.00943731)
(8.09472 0.224222 0.154581)
(8.33666 -0.206349 -0.32561)
(8.36382 -0.149249 -0.307269)
(8.19718 -0.10588 -0.24751)
(8.01541 -0.108213 -0.203615)
(8.26352 0.255355 0.293021)
(8.33383 0.233055 0.200309)
(8.34902 0.0501347 0.0869548)
(8.38173 0.129001 0.0973779)
(7.95878 -0.0664352 -0.199633)
(7.97959 0.00207957 -0.16328)
(7.65119 0.0759112 -0.0288311)
(8.23342 0.221928 0.129278)
(8.35006 0.0247105 0.0444077)
(8.23661 0.118495 0.0209574)
(11.7696 0.00597669 0.470313)
(11.619 -0.0573925 0.458553)
(11.6115 0.00777824 0.44006)
(11.7305 0.0327873 0.465688)
(11.6032 -0.100134 0.478578)
(11.3113 -0.0682935 0.475565)
(11.5389 -0.167845 0.466548)
(11.7857 -0.0119742 0.429132)
(11.7775 0.00835085 0.455767)
(11.7195 -0.0494024 0.460088)
(11.3458 -0.18837 0.40858)
(11.2844 -0.0976382 0.473043)
(11.7454 0.0355034 0.457445)
(11.4975 -0.0672067 0.455679)
(11.5062 -0.105582 0.43828)
(11.2496 -0.154227 0.434914)
(3.15141 -0.113745 0.419952)
(3.17718 -0.337605 0.598749)
(2.04996 -0.31979 0.843945)
(1.88552 -0.122937 0.75659)
(6.30756 -0.636418 0.254312)
(4.56284 -0.573908 0.23783)
(7.82692 -0.307331 0.29167)
(5.50408 0.100851 0.335799)
(2.93591 0.384729 0.924545)
(4.51511 -0.210857 0.659794)
(7.71807 -0.321121 0.207912)
(5.75047 -0.305822 0.374391)
(4.58312 0.228442 0.284172)
(12.5377 -0.0818203 1.10875)
(12.4989 0.0146021 1.1803)
(12.5797 -0.104902 1.06871)
(12.6568 -0.126495 0.953183)
(12.7881 -0.128229 0.890821)
(12.724 -0.106515 1.0059)
(12.4781 0.0418869 1.18729)
(12.5662 0.147031 1.03152)
(12.6728 -0.00720245 0.971161)
(12.6334 -0.0969222 0.919217)
(12.846 -0.0546434 0.849572)
(12.5827 0.209838 0.986856)
(11.8198 0.348945 -0.170991)
(11.7758 0.261307 -0.191459)
(11.8249 0.22511 -0.206757)
(11.9142 0.351323 -0.147801)
(11.8546 0.298988 -0.143746)
(11.8922 0.27437 -0.163734)
(12.0451 0.331342 -0.188582)
(12.1338 0.33667 -0.203435)
(12.0388 0.247229 -0.19599)
(11.9946 0.235942 -0.194042)
(12.0667 0.543216 -0.285731)
(12.15 0.53634 -0.286091)
(11.991 0.487894 -0.296198)
(12.0508 0.477782 -0.280307)
(11.9 0.482604 -0.296779)
(11.9418 0.405594 -0.214899)
(11.9491 0.323325 -0.154473)
(12.0027 0.495441 -0.273771)
(12.0271 0.378798 -0.192312)
(11.786 -0.39489 0.264287)
(11.7481 -0.352143 0.337787)
(11.9809 -0.313952 0.193749)
(11.9617 -0.25936 0.240179)
(12.0015 -0.253131 0.260499)
(12.3758 -0.308258 0.370237)
(12.2115 -0.318894 0.374722)
(11.8855 -0.338776 0.304851)
(12.1477 -0.365388 0.231937)
(12.8055 -0.253101 0.514982)
(12.7994 -0.267294 0.493472)
(12.0506 -0.341589 0.381735)
(12.7813 -0.319071 0.351232)
(12.5837 -0.333029 0.330142)
(12.7421 -0.266883 0.44441)
(12.92 -0.25894 0.496369)
(12.9367 -0.244749 0.453452)
(12.6359 -0.332452 0.405454)
(12.8728 -0.250976 0.411869)
(1.32113 0.559381 -1.30017)
(1.38202 0.353922 -1.52299)
(2.00874 0.0617924 -1.18533)
(1.83969 0.228281 -1.16106)
(1.57 0.277919 -1.40321)
(1.60209 0.197329 -1.4546)
(2.21144 0.0738026 -1.41782)
(2.42396 -0.0415729 -1.40889)
(2.59878 -0.227206 -1.25954)
(2.48545 -0.0600209 -1.41973)
(2.97109 -0.37231 -1.25059)
(3.22438 -0.480077 -1.32673)
(2.46863 -0.180719 -1.09025)
(2.97153 -0.435973 -1.28169)
(2.54737 -0.246611 -1.2131)
(2.04663 -0.00808732 -1.41552)
(11.0265 0.458541 -0.331066)
(10.9453 0.428556 -0.258998)
(11.0071 0.427269 -0.339657)
(11.0992 0.491083 -0.410552)
(11.0499 0.488805 -0.691732)
(10.9656 0.484804 -0.686394)
(10.9453 0.436307 -0.322566)
(11.0627 0.499802 -0.557167)
(11.0067 0.511247 -0.683718)
(10.9559 0.483565 -0.694657)
(10.9259 0.359581 -0.390737)
(11.0251 0.418641 -0.502368)
(10.998 0.501338 -0.510813)
(10.8782 0.369872 -0.398156)
(10.8274 0.376471 -0.40742)
(10.905 0.465193 -0.534997)
(8.24997 0.30625 -0.673247)