/*--------------------------------*- C++ -*----------------------------------*\
  =========                 |
  \\      /  F ield         | OpenFOAM: The Open Source CFD Toolbox
   \\    /   O peration     | Website:  https://openfoam.org
    \\  /    A nd           | Version:  10
     \\/     M anipulation  |
\*---------------------------------------------------------------------------*/
FoamFile
{
    format      ascii;
    class       volScalarField;
    location    "19";
    object      C;
}
// * * * * * * * * * * * * * * * * * * * * * * * * * * * * * * * * * * * * * //

dimensions      [1 3 0 0 0 0 0];

internalField   nonuniform List<scalar> 
75457
(
0.499999
0.499999
0.499999
0.5
0.499992
0.499992
0.499999
0.499999
0.499999
0.499999
0.499999
0.499991
0.499991
0.499998
0.499979
0.499982
0.499992
0.499986
0.499984
0.499992
0.499988
0.49999
0.499981
0.499981
0.49999
0.499968
0.499967
0.49561
0.494667
0.495588
0.496268
0.494543
0.494632
0.497443
0.497431
0.497785
0.497473
0.494173
0.494814
0.49765
0.497791
0.497695
0.497777
0.499013
0.498529
0.499444
0.499441
0.499008
0.499981
0.499818
0.499806
0.499977
0.499971
0.499834
0.499905
0.499926
0.49993
0.499931
0.499985
0.499976
0.499961
0.499984
0.5
0.5
0.5
0.5
0.5
0.5
0.5
0.5
0.5
0.5
0.5
0.5
0.5
0.5
0.5
0.375152
0.393043
0.400925
0.379966
0.386043
0.382186
0.390687
0.394702
0.392611
0.412322
0.421535
0.395096
0.400879
0.382603
0.399143
0.39141
0.379294
0.5
0.5
0.5
0.5
0.5
0.5
0.5
0.5
0.5
0.5
0.5
0.5
0.5
0.5
0.5
0.5
0.5
0.5
0.5
0.5
0.5
0.5
0.5
0.5
0.5
0.5
0.5
0.5
0.5
0.5
0.5
0.5
0.5
0.5
0.5
0.5
0.5
0.5
0.5
0.5
0.5
0.5
0.5
0.5
0.5
0.5
0.5
0.5
0.5
0.5
0.5
0.5
0.5
0.5
0.5
0.5
0.5
0.5
0.5
0.5
0.5
0.5
0.5
0.5
0.5
0.5
0.5
0.5
0.5
0.5
0.5
0.5
0.5
0.5
0.5
0.5
0.5
0.5
0.5
0.5
0.5
0.5
0.5
0.5
0.5
0.5
0.5
0.5
0.5
0.5
0.5
0.5
0.5
0.5
0.5
0.5
0.499934
0.499912
0.499899
0.499832
0.499785
0.499811
0.5
0.5
0.5
0.5
0.5
0.5
0.5
0.5
0.5
0.5
0.5
0.5
0.5
0.5
0.5
0.499999
0.5
0.5
0.5
0.5
0.5
0.499999
0.5
0.5
0.5
0.5
0.5
0.5
0.5
0.5
0.5
0.5
0.5
0.5
0.5
0.5
0.5
0.5
0.5
0.499995
0.499993
0.499995
0.499997
0.499997
0.499994
0.499997
0.499995
0.499992
0.499996
0.499993
0.499998
0.499998
0.499993
0.499994
0.499998
0.499995
0.497492
0.497649
0.497629
0.497671
0.498301
0.498401
0.498471
0.498952
0.498943
0.498948
0.49746
0.49844
0.499681
0.499763
0.499201
0.49967
0.499767
0.499698
0.499681
0.499772
0.499116
0.498884
0.499683
0.498952
0.499687
0.5
0.5
0.5
0.5
0.5
0.5
0.5
0.5
0.5
0.5
0.5
0.5
0.5
0.5
0.5
0.483379
0.483484
0.480687
0.481872
0.483214
0.483641
0.483513
0.483148
0.483295
0.326433
0.326083
0.348419
0.341847
0.332442
0.320825
0.321418
0.33707
0.31246
0.319758
0.334761
0.321353
0.330361
0.395174
0.28626
0.357727
0.351896
0.311361
0.286672
0.323505
0.36479
0.3347
0.323747
0.338295
0.5
0.5
0.5
0.5
0.5
0.5
0.5
0.5
0.5
0.5
0.5
0.5
0.5
0.5
0.5
0.5
0.5
0.432665
0.436071
0.433318
0.452188
0.424936
0.421025
0.432707
0.406686
0.423717
0.447796
0.419574
0.494461
0.496513
0.496591
0.493224
0.49636
0.486038
0.485825
0.493079
0.496466
0.492917
0.49641
0.499321
0.499658
0.499184
0.499661
0.499657
0.499423
0.499261
0.499226
0.499191
0.499445
0.499466
0.499317
0.499662
0.499698
0.49959
0.407273
0.374535
0.398286
0.369576
0.370237
0.49998
0.499981
0.499946
0.499975
0.49988
0.49988
0.499971
0.5
0.5
0.5
0.5
0.5
0.5
0.5
0.5
0.5
0.5
0.5
0.5
0.5
0.5
0.5
0.5
0.5
0.5
0.5
0.5
0.5
0.5
0.5
0.5
0.5
0.5
0.5
0.5
0.5
0.5
0.5
0.5
0.5
0.5
0.5
0.5
0.5
0.5
0.5
0.5
0.5
0.5
0.5
0.5
0.5
0.5
0.5
0.5
0.5
0.5
0.5
0.5
0.5
0.5
0.499996
0.499995
0.499997
0.499995
0.5
0.499998
0.499999
0.499997
0.5
0.499997
0.499998
0.499999
0.499998
0.499998
0.5
0.499978
0.499856
0.499874
0.499875
0.499983
0.499979
0.49988
0.49988
0.499997
0.499997
0.499913
0.499987
0.499969
0.499931
0.499983
0.499997
0.5
0.5
0.5
0.5
0.5
0.5
0.5
0.5
0.5
0.5
0.5
0.5
0.5
0.5
0.5
0.5
0.5
0.5
0.5
0.5
0.5
0.5
0.5
0.5
0.5
0.5
0.5
0.5
0.5
0.5
0.5
0.5
0.5
0.5
0.5
0.5
0.5
0.5
0.5
0.5
0.5
0.5
0.5
0.5
0.5
0.5
0.5
0.5
0.5
0.5
0.5
0.5
0.5
0.5
0.5
0.5
0.5
0.5
0.5
0.5
0.5
0.5
0.5
0.5
0.5
0.5
0.5
0.5
0.493581
0.493859
0.494239
0.49351
0.492797
0.493391
0.490308
0.490435
0.492867
0.493719
0.49428
0.493523
0.489218
0.490374
0.490721
0.490758
0.490782
0.490878
0.498735
0.499234
0.499298
0.499643
0.499108
0.499614
0.498728
0.499189
0.499224
0.499612
0.499535
0.499172
0.499572
0.498706
0.496859
0.4971
0.496915
0.497802
0.496897
0.496836
0.496163
0.497034
0.497312
0.496422
0.496442
0.496194
0.496989
0.497895
0.497881
0.49625
0.497693
0.496698
0.5
0.5
0.5
0.5
0.5
0.5
0.5
0.5
0.5
0.5
0.5
0.5
0.496274
0.497915
0.495913
0.497813
0.496088
0.496826
0.496306
0.496351
0.496597
0.498377
0.498622
0.498516
0.498044
0.49797
0.498615
0.498049
0.499169
0.498496
0.498982
0.498559
0.497546
0.497236
0.495869
0.497636
0.497679
0.498548
0.498841
0.498683
0.495857
0.498552
0.498207
0.498136
0.5
0.5
0.5
0.5
0.5
0.5
0.5
0.5
0.5
0.5
0.5
0.5
0.5
0.5
0.5
0.5
0.5
0.5
0.5
0.499818
0.499811
0.499875
0.499741
0.499834
0.499774
0.499834
0.49991
0.499823
0.499941
0.499779
0.499873
0.499882
0.499886
0.49585
0.496072
0.496984
0.495603
0.496521
0.496862
0.498504
0.499168
0.498831
0.499645
0.499237
0.497958
0.499537
0.499519
0.499529
0.499638
0.499412
0.499534
0.499992
0.499987
0.499985
0.499997
0.499997
0.499989
0.499994
0.499997
0.499997
0.499987
0.49999
0.470269
0.470406
0.472365
0.471994
0.467017
0.466458
0.464066
0.461527
0.472298
0.473675
0.472851
0.47009
0.469409
0.469492
0.468419
0.468778
0.463926
0.475417
0.474228
0.475666
0.472388
0.499976
0.499977
0.499998
0.499994
0.499998
0.499978
0.499976
0.5
0.5
0.499999
0.499997
0.5
0.5
0.499999
0.5
0.5
0.5
0.498079
0.497738
0.497477
0.496489
0.498154
0.497974
0.495962
0.496061
0.497681
0.496512
0.496542
0.462906
0.462373
0.462314
0.444516
0.460427
0.436041
0.431365
0.447867
0.460343
0.460766
0.444216
0.446248
0.446633
0.49999
0.49999
0.499995
0.499995
0.499988
0.499989
0.499984
0.499984
0.499997
0.499996
0.499989
0.49999
0.499997
0.499986
0.499998
0.499996
0.49999
0.499992
0.499997
0.499997
0.499997
0.49999
0.499981
0.499992
0.499961
0.499991
0.499994
0.499958
0.499955
0.499991
0.499973
0.499957
0.49998
0.499982
0.499918
0.499989
0.499973
0.499894
0.49994
0.499986
0.499994
0.499992
0.499584
0.499027
0.49825
0.498381
0.499601
0.499139
0.498218
0.497907
0.499474
0.499478
0.499541
0.499586
0.499535
0.499127
0.49954
0.499408
0.499486
0.499113
0.497931
0.49819
0.498319
0.49802
0.494801
0.495092
0.498522
0.498226
0.498149
0.497677
0.498187
0.498147
0.497273
0.495073
0.494678
0.495426
0.497658
0.497809
0.498256
0.49546
0.496277
0.499345
0.499342
0.49953
0.499581
0.499622
0.499639
0.499729
0.499649
0.499651
0.499573
0.499595
0.499707
0.499507
0.499461
0.5
0.5
0.5
0.5
0.5
0.5
0.5
0.5
0.5
0.5
0.49986
0.499862
0.499903
0.499914
0.499665
0.499551
0.4999
0.499935
0.499634
0.49989
0.499818
0.49982
0.499905
0.499532
0.499906
0.499815
0.499484
0.499648
0.499648
0.499436
0.499356
0.499339
0.499411
0.499674
0.499672
0.499496
0.499379
0.499447
0.499504
0.499737
0.499674
0.499505
0.499249
0.499006
0.499463
0.499696
0.499504
0.5
0.5
0.5
0.5
0.5
0.5
0.5
0.5
0.5
0.5
0.5
0.5
0.5
0.5
0.5
0.5
0.453777
0.452097
0.454263
0.457132
0.475089
0.467398
0.482304
0.470023
0.464504
0.467479
0.482041
0.469896
0.46456
0.497845
0.497735
0.498024
0.498425
0.498812
0.498509
0.497745
0.498458
0.49874
0.498448
0.499128
0.498546
0.5
0.5
0.5
0.5
0.5
0.5
0.5
0.5
0.5
0.5
0.5
0.5
0.5
0.5
0.5
0.5
0.5
0.5
0.5
0.496405
0.496188
0.497564
0.497543
0.497539
0.497787
0.497381
0.496742
0.497732
0.498958
0.498967
0.496956
0.498968
0.498579
0.498741
0.499222
0.499328
0.498631
0.499141
0.444011
0.446206
0.455631
0.450365
0.446136
0.448241
0.451634
0.455546
0.458079
0.45625
0.464374
0.464058
0.461881
0.461956
0.463364
0.452477
0.5
0.5
0.5
0.5
0.5
0.5
0.5
0.5
0.5
0.5
0.5
0.5
0.5
0.5
0.5
0.5
0.481334
0.46617
0.484883
0.468709
0.481496
0.458196
0.494981
0.487413
0.496393
0.496416
0.495016
0.486921
0.467331
0.452618
0.481643
0.494925
0.494799
0.494952
0.48702
0.46208
0.5
0.5
0.5
0.5
0.5
0.5
0.5
0.5
0.5
0.5
0.5
0.5
0.5
0.5
0.5
0.5
0.5
0.5
0.5
0.5
0.5
0.5
0.5
0.5
0.5
0.5
0.5
0.5
0.5
0.5
0.5
0.5
0.5
0.5
0.5
0.5
0.5
0.5
0.5
0.5
0.5
0.5
0.5
0.5
0.5
0.499999
0.499999
0.499999
0.499999
0.5
0.5
0.499998
0.499998
0.499999
0.499999
0.5
0.499999
0.499999
0.5
0.499999
0.5
0.5
0.5
0.5
0.499752
0.498891
0.499081
0.499775
0.499686
0.499045
0.499028
0.49952
0.499381
0.499241
0.499786
0.499798
0.499474
0.499541
0.49948
0.499575
0.499998
0.499995
0.499995
0.499994
0.499998
0.499998
0.499994
0.499996
0.499998
0.5
0.5
0.5
0.5
0.5
0.5
0.5
0.5
0.5
0.5
0.5
0.5
0.5
0.5
0.5
0.5
0.5
0.5
0.5
0.5
0.5
0.5
0.5
0.5
0.5
0.5
0.5
0.5
0.5
0.5
0.5
0.5
0.5
0.5
0.5
0.5
0.5
0.5
0.5
0.5
0.5
0.5
0.5
0.5
0.5
0.5
0.5
0.5
0.5
0.5
0.499998
0.499999
0.499999
0.499999
0.499998
0.499992
0.499995
0.499999
0.499998
0.499998
0.499998
0.499994
0.499994
0.499996
0.499991
0.49999
0.499996
0.499995
0.499994
0.49983
0.499892
0.499768
0.499832
0.499806
0.499582
0.499532
0.499806
0.499589
0.49953
0.498895
0.498974
0.499085
0.49933
0.499668
0.499224
0.411844
0.412087
0.410632
0.41549
0.396675
0.402486
0.414555
0.398646
0.40349
0.5
0.5
0.5
0.499996
0.5
0.5
0.5
0.5
0.499996
0.499997
0.499999
0.499997
0.499998
0.499999
0.499992
0.499997
0.499995
0.499999
0.499999
0.499997
0.499992
0.499995
0.499996
0.499999
0.499992
0.499997
0.499999
0.499999
0.5
0.5
0.5
0.5
0.5
0.5
0.5
0.5
0.5
0.5
0.5
0.5
0.5
0.5
0.5
0.5
0.5
0.5
0.5
0.5
0.5
0.5
0.5
0.5
0.5
0.5
0.5
0.5
0.5
0.5
0.5
0.5
0.5
0.5
0.5
0.5
0.5
0.5
0.5
0.5
0.5
0.5
0.5
0.5
0.5
0.5
0.5
0.5
0.5
0.5
0.5
0.5
0.5
0.5
0.5
0.5
0.5
0.5
0.5
0.5
0.5
0.5
0.5
0.5
0.5
0.5
0.5
0.5
0.5
0.5
0.5
0.5
0.5
0.5
0.5
0.5
0.5
0.5
0.5
0.5
0.499981
0.499981
0.499979
0.499981
0.499971
0.499979
0.499982
0.499984
0.499982
0.499973
0.49998
0.499985
0.499988
0.499985
0.499989
0.499987
0.499984
0.499988
0.49999
0.5
0.5
0.5
0.5
0.498454
0.498269
0.499996
0.49999
0.499999
0.5
0.499998
0.5
0.5
0.498646
0.497248
0.499577
0.499997
0.499999
0.499997
0.499996
0.499762
0.499824
0.499608
0.499828
0.499738
0.499674
0.499653
0.499308
0.499803
0.499799
0.499636
0.4998
0.499425
0.499508
0.499323
0.499795
0.499761
0.499798
0.499536
0.384806
0.391665
0.402104
0.398815
0.389404
0.382338
0.406437
0.411588
0.409195
0.418195
0.412369
0.408719
0.40612
0.40931
0.398781
0.398862
0.5
0.5
0.5
0.5
0.5
0.5
0.5
0.5
0.5
0.5
0.5
0.5
0.5
0.5
0.5
0.5
0.5
0.5
0.5
0.5
0.5
0.5
0.5
0.5
0.5
0.5
0.5
0.5
0.5
0.5
0.5
0.5
0.5
0.5
0.5
0.5
0.5
0.5
0.5
0.5
0.5
0.5
0.5
0.5
0.5
0.5
0.5
0.5
0.5
0.5
0.5
0.5
0.5
0.5
0.5
0.5
0.5
0.5
0.5
0.5
0.5
0.5
0.5
0.5
0.5
0.5
0.5
0.5
0.5
0.5
0.5
0.5
0.5
0.5
0.5
0.5
0.5
0.5
0.5
0.5
0.5
0.5
0.5
0.5
0.5
0.5
0.5
0.5
0.5
0.5
0.5
0.5
0.5
0.5
0.5
0.5
0.5
0.5
0.5
0.5
0.5
0.5
0.5
0.5
0.5
0.5
0.5
0.5
0.5
0.5
0.5
0.5
0.5
0.5
0.5
0.5
0.5
0.5
0.5
0.5
0.5
0.5
0.5
0.5
0.5
0.5
0.5
0.5
0.5
0.5
0.5
0.5
0.5
0.5
0.5
0.5
0.5
0.5
0.5
0.5
0.5
0.5
0.5
0.5
0.5
0.5
0.5
0.5
0.5
0.5
0.5
0.5
0.5
0.5
0.5
0.5
0.5
0.5
0.5
0.5
0.5
0.5
0.5
0.5
0.5
0.5
0.5
0.5
0.5
0.5
0.5
0.5
0.5
0.5
0.5
0.5
0.5
0.5
0.5
0.5
0.5
0.5
0.5
0.5
0.5
0.5
0.5
0.5
0.5
0.5
0.5
0.5
0.499997
0.499992
0.499999
0.499986
0.499994
0.499995
0.499989
0.499987
0.499998
0.420501
0.420372
0.421559
0.423022
0.5
0.5
0.5
0.5
0.5
0.5
0.5
0.5
0.5
0.5
0.5
0.5
0.5
0.5
0.5
0.5
0.5
0.5
0.5
0.5
0.5
0.5
0.493309
0.496818
0.497255
0.49428
0.492776
0.497176
0.497302
0.496499
0.490326
0.496542
0.493876
0.492667
0.488345
0.491447
0.496243
0.496851
0.5
0.5
0.5
0.5
0.499997
0.499998
0.499999
0.499999
0.5
0.499999
0.499999
0.5
0.499999
0.5
0.499998
0.499999
0.5
0.5
0.5
0.5
0.499999
0.5
0.5
0.5
0.5
0.5
0.5
0.5
0.5
0.5
0.5
0.5
0.5
0.5
0.5
0.5
0.5
0.5
0.5
0.5
0.5
0.476501
0.476202
0.475971
0.482521
0.476196
0.475989
0.482908
0.476205
0.477472
0.482372
0.476381
0.468639
0.467905
0.468248
0.467839
0.473876
0.480413
0.480761
0.477783
0.478529
0.480727
0.473191
0.5
0.5
0.5
0.5
0.5
0.5
0.5
0.5
0.5
0.5
0.5
0.5
0.5
0.5
0.5
0.5
0.5
0.5
0.5
0.5
0.5
0.5
0.5
0.5
0.5
0.5
0.5
0.5
0.5
0.5
0.5
0.5
0.5
0.5
0.5
0.5
0.5
0.5
0.5
0.5
0.5
0.5
0.5
0.5
0.5
0.5
0.5
0.5
0.5
0.5
0.454424
0.44763
0.458411
0.449573
0.456081
0.470423
0.462978
0.471939
0.470384
0.480038
0.486794
0.484762
0.469392
0.480673
0.48701
0.47749
0.476636
0.499061
0.498999
0.499804
0.499806
0.499809
0.499831
0.49912
0.499238
0.499137
0.499134
0.499744
0.49961
0.49925
0.499814
0.499522
0.499535
0.499745
0.499649
0.499559
0.499759
0.499758
0.499616
0.49537
0.495557
0.496495
0.495976
0.495797
0.497455
0.497942
0.495946
0.496377
0.498824
0.498598
0.498323
0.497711
0.498526
0.499033
0.498721
0.498331
0.499027
0.462689
0.474938
0.481335
0.479187
0.482604
0.479505
0.460978
0.469272
0.475344
0.470447
0.480012
0.480369
0.474038
0.479301
0.455916
0.469882
0.471119
0.5
0.5
0.5
0.5
0.5
0.5
0.5
0.5
0.5
0.5
0.499065
0.499597
0.498648
0.49864
0.499905
0.499669
0.498987
0.498934
0.49895
0.499029
0.499311
0.499732
0.499106
0.499925
0.49983
0.499319
0.499734
0.49976
0.5
0.5
0.5
0.5
0.5
0.5
0.5
0.5
0.5
0.5
0.5
0.5
0.5
0.499493
0.499491
0.499515
0.499511
0.498728
0.499364
0.499357
0.499411
0.497539
0.49755
0.498689
0.498743
0.49902
0.498683
0.49983
0.49996
0.499561
0.499878
0.499974
0.499877
0.499663
0.499825
0.499936
0.499859
0.499935
0.499822
0.49977
0.499939
0.499665
0.370851
0.376705
0.36997
0.361002
0.36888
0.364213
0.357363
0.375227
0.354709
0.355939
0.330564
0.362337
0.372424
0.370658
0.367079
0.379767
0.376902
0.359405
0.5
0.5
0.5
0.5
0.5
0.5
0.5
0.5
0.5
0.5
0.5
0.5
0.5
0.5
0.5
0.5
0.5
0.5
0.5
0.5
0.5
0.5
0.5
0.5
0.5
0.5
0.5
0.5
0.5
0.5
0.5
0.5
0.436347
0.434045
0.428587
0.431359
0.434862
0.43149
0.428773
0.424064
0.424635
0.428747
0.426318
0.425347
0.42175
0.422921
0.420576
0.415986
0.418313
0.432869
0.5
0.5
0.5
0.5
0.5
0.5
0.5
0.5
0.5
0.5
0.5
0.5
0.5
0.5
0.5
0.5
0.5
0.5
0.5
0.499976
0.499976
0.499988
0.499985
0.499969
0.499968
0.499945
0.499945
0.499956
0.499957
0.499959
0.499965
0.499977
0.499979
0.499947
0.499948
0.49994
0.499963
0.5
0.5
0.5
0.5
0.5
0.5
0.5
0.5
0.5
0.5
0.5
0.5
0.5
0.5
0.5
0.5
0.5
0.5
0.5
0.5
0.5
0.5
0.5
0.5
0.5
0.5
0.5
0.5
0.5
0.5
0.5
0.5
0.5
0.5
0.5
0.5
0.5
0.5
0.5
0.5
0.5
0.5
0.5
0.5
0.5
0.5
0.5
0.5
0.5
0.5
0.5
0.5
0.5
0.5
0.5
0.5
0.5
0.5
0.5
0.5
0.5
0.5
0.5
0.5
0.5
0.5
0.5
0.5
0.5
0.5
0.5
0.5
0.5
0.5
0.5
0.5
0.5
0.5
0.5
0.5
0.49997
0.499973
0.499972
0.499988
0.499985
0.499978
0.499973
0.499979
0.499969
0.499981
0.49999
0.499959
0.49998
0.499985
0.499975
0.499957
0.499958
0.499931
0.499959
0.499929
0.499957
0.499956
0.499925
0.499927
0.499934
0.499953
0.499903
0.499908
0.499985
0.499989
0.499988
0.499968
0.499953
0.5
0.5
0.5
0.5
0.5
0.5
0.5
0.5
0.5
0.5
0.5
0.5
0.5
0.5
0.5
0.496267
0.496536
0.496726
0.49675
0.495828
0.49648
0.495009
0.494178
0.494971
0.5
0.5
0.5
0.5
0.5
0.5
0.5
0.5
0.5
0.5
0.5
0.5
0.5
0.5
0.5
0.5
0.5
0.5
0.5
0.5
0.5
0.5
0.5
0.5
0.5
0.5
0.5
0.5
0.5
0.5
0.5
0.5
0.5
0.5
0.5
0.5
0.5
0.5
0.5
0.5
0.5
0.5
0.5
0.5
0.5
0.5
0.5
0.5
0.5
0.5
0.5
0.5
0.5
0.5
0.5
0.5
0.5
0.5
0.5
0.5
0.5
0.5
0.5
0.5
0.5
0.5
0.5
0.5
0.49967
0.49964
0.499582
0.499623
0.499877
0.499814
0.499881
0.499881
0.499585
0.499935
0.499816
0.499715
0.499775
0.499968
0.499981
0.499839
0.49993
0.499899
0.499958
0.499981
0.499981
0.499977
0.499979
0.49984
0.499981
0.49992
0.499999
0.499999
0.499999
0.499999
0.5
0.5
0.5
0.499997
0.499997
0.499997
0.499997
0.499998
0.499998
0.499999
0.499999
0.499999
0.499999
0.499998
0.5
0.5
0.5
0.5
0.5
0.5
0.5
0.5
0.5
0.5
0.5
0.5
0.5
0.5
0.5
0.5
0.5
0.5
0.5
0.5
0.5
0.5
0.5
0.5
0.5
0.5
0.496794
0.497614
0.497466
0.496749
0.497044
0.49749
0.49722
0.497145
0.497046
0.496721
0.496699
0.4969
0.496701
0.499344
0.499794
0.499847
0.49977
0.499694
0.499338
0.499233
0.499384
0.499838
0.499732
0.499713
0.499692
0.499758
0.499743
0.499729
0.499858
0.499951
0.499929
0.49976
0.499817
0.499956
0.49996
0.499963
0.499962
0.499965
0.499925
0.49993
0.499704
0.499898
0.49993
0.499869
0.499998
0.499999
0.499998
0.499999
0.499998
0.499999
0.499998
0.499996
0.499998
0.499999
0.499999
0.499998
0.499999
0.499996
0.47295
0.472893
0.478315
0.480221
0.47392
0.473825
0.469205
0.469972
0.473435
0.472657
0.468992
0.5
0.5
0.5
0.5
0.5
0.5
0.5
0.5
0.5
0.5
0.5
0.5
0.5
0.5
0.5
0.5
0.5
0.5
0.5
0.5
0.5
0.5
0.5
0.5
0.5
0.5
0.5
0.5
0.5
0.5
0.5
0.5
0.5
0.5
0.5
0.5
0.5
0.5
0.5
0.5
0.5
0.5
0.5
0.5
0.5
0.5
0.5
0.5
0.5
0.5
0.5
0.5
0.5
0.5
0.5
0.5
0.5
0.5
0.5
0.5
0.5
0.5
0.5
0.5
0.5
0.5
0.5
0.5
0.5
0.5
0.5
0.5
0.5
0.5
0.5
0.5
0.5
0.5
0.5
0.5
0.5
0.5
0.5
0.5
0.5
0.5
0.5
0.5
0.5
0.5
0.5
0.5
0.5
0.5
0.5
0.5
0.5
0.5
0.5
0.499937
0.499941
0.499932
0.499933
0.499977
0.499962
0.499974
0.499946
0.499996
0.499995
0.499984
0.499995
0.49999
0.499983
0.499995
0.499996
0.499977
0.499984
0.497793
0.494686
0.49749
0.497104
0.49757
0.495626
0.498704
0.498844
0.495604
0.498766
0.496862
0.494421
0.496971
0.496959
0.497043
0.497684
0.498839
0.497502
0.496582
0.498821
0.494976
0.497058
0.498235
0.498822
0.497195
0.495172
0.4952
0.499846
0.499816
0.499843
0.499882
0.499708
0.494282
0.492446
0.494095
0.497533
0.490297
0.498316
0.491544
0.458513
0.466951
0.481567
0.465549
0.455382
0.485408
0.472576
0.497842
0.469027
0.470906
0.481837
0.477565
0.468714
0.488024
0.484273
0.468484
0.468317
0.48619
0.489435
0.474096
0.47725
0.488532
0.487093
0.474249
0.472884
0.481266
0.5
0.5
0.5
0.5
0.5
0.5
0.5
0.5
0.5
0.5
0.5
0.5
0.5
0.5
0.5
0.5
0.5
0.5
0.5
0.5
0.499994
0.499994
0.499996
0.499997
0.499996
0.499997
0.499996
0.499996
0.499993
0.499995
0.499997
0.499997
0.499997
0.499997
0.499987
0.5
0.499986
0.499983
0.5
0.499999
0.499969
0.499996
0.5
0.499989
0.499984
0.499969
0.5
0.5
0.5
0.5
0.5
0.5
0.492758
0.487964
0.488339
0.47687
0.472741
0.483222
0.485071
0.49697
0.473237
0.484662
0.495222
0.494299
0.495266
0.494058
0.489656
0.497628
0.478666
0.48471
0.497869
0.494359
0.496989
0.498568
0.5
0.5
0.5
0.5
0.5
0.5
0.5
0.5
0.5
0.5
0.5
0.5
0.5
0.5
0.5
0.5
0.5
0.5
0.5
0.5
0.5
0.5
0.5
0.5
0.5
0.5
0.5
0.5
0.5
0.5
0.5
0.5
0.5
0.5
0.5
0.462738
0.452829
0.461254
0.449731
0.453086
0.455954
0.45776
0.468569
0.5
0.499999
0.5
0.5
0.5
0.5
0.5
0.499999
0.5
0.5
0.499999
0.5
0.5
0.5
0.5
0.5
0.5
0.5
0.5
0.5
0.5
0.5
0.5
0.5
0.5
0.5
0.5
0.5
0.5
0.5
0.5
0.5
0.5
0.5
0.5
0.5
0.5
0.5
0.5
0.5
0.5
0.5
0.5
0.5
0.5
0.5
0.5
0.5
0.499966
0.499978
0.499982
0.49999
0.499975
0.499983
0.499989
0.49999
0.499991
0.499992
0.499966
0.499991
0.499992
0.499991
0.499953
0.499967
0.499984
0.499989
0.49999
0.49999
0.499953
0.499989
0.5
0.5
0.5
0.5
0.5
0.5
0.5
0.5
0.5
0.5
0.5
0.5
0.5
0.5
0.5
0.5
0.441221
0.445393
0.447434
0.446528
0.440824
0.441844
0.453576
0.454285
0.452822
0.450417
0.460489
0.459736
0.447621
0.450344
0.447522
0.455412
0.44279
0.440321
0.499886
0.498075
0.498298
0.499294
0.499036
0.49902
0.497524
0.497706
0.4999
0.4999
0.499044
0.499027
0.49945
0.499807
0.499779
0.49976
0.5
0.5
0.5
0.5
0.5
0.5
0.5
0.5
0.5
0.5
0.5
0.5
0.5
0.5
0.5
0.5
0.5
0.5
0.5
0.5
0.499999
0.499999
0.499995
0.499996
0.5
0.5
0.5
0.5
0.499998
0.499997
0.5
0.5
0.5
0.5
0.5
0.5
0.499456
0.499432
0.499479
0.499322
0.499779
0.499326
0.499792
0.499331
0.499791
0.499935
0.499833
0.49991
0.499866
0.49984
0.499787
0.499844
0.499865
0.499709
0.499801
0.499932
0.499861
0.499893
0.499707
0.499789
0.499916
0.499931
0.499755
0.499831
0.499919
0.499999
0.499999
0.499997
0.499998
0.499998
0.499998
0.499998
0.5
0.499999
0.5
0.499999
0.499999
0.499999
0.499997
0.499997
0.499999
0.499998
0.499998
0.499955
0.499964
0.499982
0.499979
0.499958
0.499973
0.499949
0.499962
0.499966
0.5
0.5
0.5
0.5
0.5
0.5
0.5
0.5
0.499999
0.499997
0.499997
0.5
0.5
0.5
0.5
0.5
0.5
0.5
0.5
0.5
0.5
0.5
0.5
0.5
0.5
0.5
0.5
0.5
0.5
0.5
0.5
0.5
0.5
0.5
0.5
0.5
0.5
0.5
0.5
0.5
0.5
0.5
0.5
0.5
0.5
0.5
0.5
0.5
0.5
0.5
0.5
0.499735
0.499617
0.499562
0.499739
0.499928
0.499929
0.49994
0.499952
0.499656
0.499873
0.499921
0.499895
0.499923
0.499871
0.499905
0.5
0.5
0.5
0.5
0.5
0.5
0.5
0.5
0.5
0.5
0.5
0.5
0.5
0.5
0.5
0.5
0.5
0.488865
0.488808
0.490907
0.491283
0.49533
0.495279
0.492247
0.491763
0.496371
0.496795
0.491049
0.496172
0.496754
0.494972
0.496657
0.496327
0.496704
0.496839
0.497467
0.49789
0.497922
0.497402
0.49465
0.493997
0.488737
0.490171
0.48998
0.486675
0.494892
0.494691
0.493946
0.493743
0.494963
0.492517
0.488103
0.489431
0.489204
0.5
0.5
0.5
0.5
0.5
0.5
0.5
0.5
0.5
0.5
0.5
0.5
0.5
0.5
0.5
0.5
0.499954
0.499941
0.499981
0.499969
0.499954
0.499899
0.499913
0.499918
0.499942
0.499964
0.499968
0.499926
0.499983
0.499977
0.499917
0.499966
0.499965
0.499967
0.5
0.5
0.5
0.5
0.5
0.5
0.5
0.5
0.5
0.5
0.5
0.5
0.5
0.5
0.5
0.5
0.5
0.5
0.5
0.5
0.5
0.5
0.5
0.5
0.5
0.5
0.5
0.5
0.5
0.5
0.5
0.5
0.5
0.5
0.5
0.5
0.5
0.5
0.5
0.5
0.5
0.5
0.5
0.5
0.5
0.5
0.5
0.499966
0.499969
0.499967
0.499972
0.499786
0.499838
0.499868
0.499779
0.499784
0.499951
0.499928
0.499967
0.49997
0.499822
0.499925
0.499937
0.498834
0.49884
0.49834
0.498525
0.498547
0.497645
0.497632
0.496186
0.496215
0.498139
0.496747
0.496726
0.496113
0.5
0.5
0.5
0.5
0.5
0.5
0.5
0.5
0.5
0.5
0.5
0.5
0.5
0.5
0.5
0.499978
0.499985
0.499993
0.499983
0.5
0.5
0.5
0.5
0.5
0.5
0.5
0.5
0.5
0.5
0.499997
0.5
0.5
0.5
0.5
0.5
0.5
0.5
0.5
0.5
0.5
0.5
0.5
0.5
0.5
0.5
0.5
0.5
0.499878
0.499867
0.499815
0.499816
0.499889
0.499909
0.499855
0.499791
0.499778
0.499834
0.499753
0.499708
0.499879
0.499783
0.499705
0.499781
0.499741
0.499657
0.455666
0.451358
0.44315
0.444781
0.456576
0.451999
0.455247
0.437427
0.440085
0.446206
0.443618
0.445659
0.456016
0.451995
0.450649
0.439299
0.433417
0.433372
0.42615
0.443163
0.499986
0.499979
0.499986
0.499984
0.499988
0.497922
0.497907
0.497841
0.497815
0.498783
0.498794
0.498951
0.499013
0.497072
0.49738
0.497452
0.498241
0.498838
0.498362
0.499794
0.499796
0.499942
0.499947
0.499793
0.499794
0.499942
0.499937
0.499948
0.499865
0.499558
0.5
0.5
0.5
0.5
0.5
0.5
0.5
0.5
0.5
0.5
0.5
0.499952
0.49995
0.499955
0.499953
0.499953
0.49995
0.499948
0.499956
0.499948
0.499943
0.499943
0.499939
0.499977
0.499978
0.499958
0.5
0.5
0.5
0.5
0.5
0.5
0.5
0.5
0.5
0.5
0.5
0.5
0.5
0.5
0.5
0.5
0.5
0.5
0.5
0.5
0.5
0.499991
0.499991
0.499993
0.499993
0.499994
0.499995
0.5
0.5
0.5
0.5
0.5
0.5
0.5
0.499998
0.5
0.499999
0.499999
0.5
0.5
0.5
0.5
0.5
0.5
0.5
0.5
0.5
0.5
0.5
0.5
0.5
0.5
0.5
0.5
0.5
0.5
0.5
0.5
0.5
0.5
0.5
0.5
0.5
0.5
0.5
0.5
0.5
0.5
0.5
0.5
0.5
0.5
0.499999
0.5
0.499999
0.5
0.499998
0.499998
0.5
0.499998
0.499998
0.5
0.5
0.499998
0.499998
0.5
0.5
0.5
0.5
0.5
0.5
0.5
0.5
0.5
0.5
0.5
0.5
0.49964
0.499582
0.498993
0.499764
0.499526
0.499332
0.499487
0.498994
0.498985
0.499239
0.499413
0.499582
0.499476
0.499762
0.499466
0.5
0.5
0.5
0.5
0.5
0.5
0.5
0.5
0.5
0.5
0.5
0.5
0.5
0.5
0.5
0.5
0.5
0.5
0.499922
0.499898
0.499942
0.499941
0.49995
0.499845
0.499804
0.499833
0.49995
0.499945
0.499898
0.499982
0.499971
0.499833
0.499885
0.49981
0.499816
0.499787
0.499984
0.499971
0.499983
0.5
0.5
0.5
0.5
0.5
0.5
0.5
0.5
0.5
0.5
0.5
0.5
0.5
0.5
0.5
0.5
0.5
0.5
0.5
0.5
0.5
0.5
0.5
0.5
0.5
0.5
0.5
0.5
0.5
0.5
0.5
0.5
0.5
0.5
0.5
0.5
0.5
0.5
0.5
0.5
0.427088
0.364292
0.442918
0.43993
0.378732
0.354398
0.390832
0.420489
0.415824
0.415153
0.403229
0.426989
0.364528
0.393924
0.386311
0.389608
0.405387
0.498515
0.498207
0.498377
0.49857
0.497902
0.496918
0.497855
0.49703
0.498485
0.497675
0.497993
0.496551
0.49809
0.497101
0.496329
0.5
0.5
0.5
0.5
0.5
0.5
0.5
0.5
0.5
0.5
0.5
0.5
0.5
0.5
0.5
0.5
0.5
0.5
0.5
0.5
0.5
0.5
0.5
0.5
0.5
0.5
0.5
0.5
0.5
0.5
0.5
0.5
0.5
0.5
0.5
0.5
0.5
0.5
0.5
0.5
0.5
0.5
0.5
0.5
0.499994
0.497076
0.497165
0.497203
0.499952
0.499279
0.499994
0.499867
0.499956
0.499997
0.499997
0.499997
0.499997
0.499997
0.499997
0.499993
0.49999
0.49999
0.499986
0.499986
0.499993
0.499993
0.49999
0.499996
0.49999
0.49999
0.499996
0.5
0.5
0.5
0.5
0.5
0.5
0.5
0.5
0.5
0.5
0.5
0.5
0.5
0.5
0.5
0.5
0.5
0.5
0.5
0.5
0.5
0.5
0.5
0.5
0.5
0.5
0.5
0.5
0.5
0.5
0.5
0.499993
0.499991
0.499987
0.499988
0.499985
0.499987
0.499992
0.499987
0.499989
0.499986
0.5
0.5
0.5
0.5
0.5
0.5
0.5
0.5
0.5
0.5
0.5
0.5
0.5
0.5
0.5
0.5
0.5
0.5
0.5
0.5
0.5
0.5
0.5
0.5
0.5
0.5
0.5
0.5
0.5
0.5
0.5
0.5
0.5
0.5
0.5
0.5
0.5
0.5
0.5
0.5
0.5
0.5
0.5
0.5
0.5
0.5
0.5
0.5
0.5
0.5
0.5
0.5
0.5
0.5
0.5
0.5
0.5
0.5
0.5
0.5
0.5
0.5
0.5
0.5
0.5
0.5
0.5
0.5
0.5
0.5
0.5
0.5
0.5
0.5
0.5
0.5
0.5
0.5
0.5
0.5
0.5
0.5
0.5
0.5
0.5
0.5
0.5
0.5
0.5
0.5
0.5
0.5
0.5
0.5
0.5
0.5
0.5
0.5
0.5
0.5
0.5
0.5
0.5
0.5
0.5
0.5
0.5
0.5
0.5
0.5
0.5
0.5
0.5
0.5
0.5
0.5
0.5
0.5
0.5
0.5
0.5
0.5
0.5
0.5
0.5
0.5
0.5
0.5
0.5
0.5
0.499998
0.499998
0.499994
0.499994
0.5
0.499998
0.5
0.499999
0.499998
0.5
0.5
0.5
0.5
0.5
0.5
0.5
0.5
0.5
0.5
0.5
0.5
0.5
0.5
0.5
0.5
0.5
0.5
0.5
0.5
0.5
0.5
0.5
0.5
0.5
0.5
0.5
0.5
0.5
0.5
0.5
0.5
0.5
0.5
0.5
0.5
0.5
0.5
0.5
0.5
0.5
0.5
0.5
0.5
0.5
0.5
0.5
0.5
0.5
0.5
0.5
0.5
0.5
0.5
0.5
0.5
0.5
0.5
0.5
0.5
0.5
0.5
0.5
0.5
0.5
0.5
0.5
0.5
0.5
0.5
0.5
0.5
0.5
0.5
0.5
0.5
0.5
0.5
0.5
0.5
0.5
0.5
0.5
0.5
0.5
0.5
0.5
0.5
0.5
0.5
0.5
0.5
0.5
0.5
0.5
0.5
0.5
0.5
0.5
0.5
0.5
0.5
0.5
0.5
0.5
0.5
0.5
0.5
0.5
0.5
0.5
0.5
0.5
0.5
0.5
0.5
0.5
0.499953
0.499956
0.499976
0.49998
0.49996
0.499988
0.499986
0.499968
0.499989
0.499986
0.499972
0.499971
0.499968
0.49996
0.499955
0.499957
0.499989
0.499977
0.499989
0.499988
0.499986
0.499961
0.499977
0.499956
0.499971
0.499976
0.499971
0.499975
0.499975
0.499971
0.499972
0.499975
0.499975
0.499975
0.49997
0.499973
0.499974
0.5
0.5
0.5
0.5
0.5
0.5
0.5
0.5
0.5
0.5
0.5
0.5
0.5
0.5
0.5
0.5
0.5
0.5
0.5
0.499999
0.5
0.499999
0.5
0.5
0.5
0.499999
0.499999
0.5
0.499999
0.499999
0.5
0.5
0.5
0.5
0.5
0.5
0.5
0.5
0.5
0.5
0.5
0.5
0.5
0.5
0.5
0.5
0.5
0.5
0.5
0.5
0.5
0.5
0.5
0.5
0.5
0.5
0.499999
0.499999
0.499999
0.499999
0.5
0.5
0.5
0.5
0.499999
0.5
0.5
0.5
0.5
0.5
0.5
0.5
0.5
0.5
0.5
0.5
0.5
0.5
0.5
0.5
0.5
0.5
0.5
0.5
0.5
0.5
0.5
0.5
0.5
0.5
0.5
0.5
0.5
0.5
0.5
0.5
0.5
0.5
0.5
0.5
0.5
0.5
0.5
0.5
0.5
0.5
0.5
0.45086
0.450051
0.451502
0.442654
0.441088
0.440527
0.434945
0.434659
0.433371
0.433643
0.438553
0.431675
0.481389
0.480268
0.492883
0.492562
0.471274
0.466032
0.495531
0.49537
0.495659
0.495699
0.495987
0.492997
0.493335
0.493443
0.401121
0.395275
0.408383
0.4269
0.453354
0.448711
0.455612
0.448834
0.457702
0.437324
0.438082
0.453099
0.43992
0.448303
0.439641
0.444509
0.4522
0.444614
0.283607
0.297149
0.337262
0.353268
0.344067
0.301336
0.357762
0.356986
0.352679
0.276151
0.275659
0.271222
0.295008
0.291923
0.291826
0.338186
0.340415
0.285912
0.5
0.5
0.5
0.5
0.5
0.5
0.5
0.5
0.5
0.5
0.5
0.5
0.5
0.5
0.5
0.5
0.499999
0.499999
0.499999
0.499999
0.5
0.499999
0.5
0.5
0.499999
0.499999
0.5
0.5
0.5
0.5
0.5
0.5
0.5
0.5
0.5
0.5
0.5
0.5
0.5
0.5
0.5
0.5
0.5
0.5
0.5
0.499993
0.499995
0.499996
0.499994
0.499993
0.499999
0.499999
0.499997
0.5
0.499998
0.499998
0.499999
0.499999
0.5
0.5
0.5
0.5
0.5
0.5
0.5
0.5
0.5
0.5
0.5
0.5
0.5
0.5
0.5
0.38209
0.38554
0.384567
0.404793
0.408351
0.380615
0.383943
0.402273
0.39528
0.384494
0.402168
0.40512
0.468015
0.474067
0.490494
0.490367
0.474044
0.474501
0.466713
0.484491
0.484577
0.473836
0.466443
0.5
0.5
0.5
0.5
0.5
0.5
0.5
0.5
0.5
0.5
0.5
0.5
0.5
0.5
0.498812
0.497403
0.497634
0.496801
0.491083
0.493691
0.489413
0.496939
0.498643
0.499189
0.495155
0.491012
0.499184
0.49613
0.492782
0.490909
0.487351
0.48743
0.491188
0.495108
0.496627
0.490719
0.497062
0.497845
0.494335
0.493068
0.493345
0.497425
0.496462
0.49416
0.49491
0.495688
0.496885
0.496965
0.497401
0.499225
0.499099
0.498858
0.499121
0.498867
0.499182
0.499326
0.499449
0.499452
0.498887
0.499422
0.499024
0.499225
0.498943
0.49744
0.498115
0.497662
0.496562
0.494008
0.494066
0.49707
0.495075
0.495393
0.449494
0.449518
0.450556
0.421158
0.422713
0.442611
0.418719
0.420767
0.441908
0.44457
0.441163
0.434017
0.497788
0.497958
0.49756
0.497534
0.496763
0.497768
0.496656
0.496632
0.496355
0.497135
0.496383
0.496571
0.496229
0.496593
0.496099
0.496091
0.5
0.5
0.5
0.5
0.5
0.5
0.5
0.5
0.5
0.5
0.5
0.5
0.5
0.5
0.5
0.5
0.5
0.5
0.490594
0.491241
0.494298
0.414081
0.499995
0.499963
0.49996
0.494819
0.497476
0.440443
0.391985
0.499707
0.488077
0.499992
0.5
0.5
0.5
0.5
0.5
0.5
0.5
0.5
0.5
0.499984
0.5
0.490279
0.5
0.49678
0.499902
0.499869
0.487913
0.488829
0.49741
0.488646
0.487736
0.498102
0.343106
0.396803
0.40103
0.485104
0.498203
0.371287
0.406666
0.499826
0.499826
0.384663
0.405491
0.482875
0.456446
0.265797
0.5
0.49987
0.5
0.499907
0.49995
0.403167
0.5
0.302024
0.434406
0.499796
0.499995
0.499999
0.499999
0.499999
0.436935
0.48806
0.5
0.499999
0.413638
0.5
0.499999
0.399206
0.499999
0.499999
0.5
0.384776
0.499999
0.5
0.382323
0.5
0.498963
0.5
0.5
0.5
0.5
0.5
0.5
0.499608
0.5
0.5
0.5
0.499999
0.5
0.5
0.5
0.5
0.5
0.499998
0.5
0.5
0.485488
0.494222
0.5
0.5
0.5
0.49997
0.5
0.433909
0.499999
0.499999
0.488602
0.4334
0.5
0.499997
0.489002
0.430899
0.499996
0.5
0.5
0.489244
0.5
0.499996
0.499993
0.441818
0.5
0.5
0.5
0.5
0.491481
0.5
0.499896
0.482143
0.5
0.5
0.5
0.5
0.5
0.5
0.5
0.499995
0.5
0.499955
0.5
0.5
0.5
0.499973
0.5
0.5
0.49997
0.5
0.499966
0.5
0.5
0.499964
0.5
0.5
0.5
0.5
0.5
0.5
0.5
0.5
0.5
0.5
0.5
0.5
0.5
0.5
0.5
0.5
0.5
0.5
0.5
0.5
0.5
0.5
0.5
0.5
0.5
0.5
0.5
0.5
0.5
0.5
0.5
0.5
0.5
0.5
0.5
0.5
0.5
0.5
0.5
0.5
0.5
0.5
0.5
0.5
0.5
0.5
0.5
0.5
0.5
0.5
0.5
0.5
0.5
0.5
0.5
0.5
0.5
0.5
0.5
0.5
0.5
0.5
0.5
0.5
0.5
0.5
0.5
0.5
0.5
0.5
0.5
0.5
0.5
0.5
0.5
0.5
0.5
0.5
0.5
0.5
0.5
0.5
0.5
0.5
0.5
0.5
0.5
0.5
0.5
0.5
0.5
0.5
0.5
0.5
0.5
0.5
0.5
0.5
0.5
0.5
0.5
0.5
0.5
0.5
0.5
0.5
0.5
0.5
0.5
0.5
0.5
0.5
0.5
0.5
0.5
0.5
0.5
0.5
0.5
0.5
0.5
0.5
0.5
0.5
0.5
0.5
0.5
0.5
0.5
0.5
0.499986
0.499999
0.5
0.5
0.5
0.5
0.5
0.5
0.5
0.5
0.5
0.5
0.5
0.5
0.5
0.5
0.499081
0.498963
0.491859
0.5
0.5
0.5
0.5
0.5
0.5
0.5
0.5
0.5
0.5
0.5
0.499999
0.499994
0.267182
0.260586
0.288063
0.5
0.5
0.5
0.5
0.5
0.5
0.5
0.499999
0.499999
0.499999
0.499999
0.499999
0.499999
0.499999
0.499963
0.499963
0.499977
0.498818
0.498041
0.49626
0.498965
0.498235
0.463203
0.476669
0.443204
0.497944
0.496824
0.496974
0.478941
0.499923
0.452398
0.475611
0.418017
0.405298
0.499907
0.499929
0.5
0.5
0.5
0.5
0.5
0.5
0.5
0.5
0.5
0.416452
0.471889
0.499993
0.499973
0.499993
0.499978
0.499983
0.499991
0.499996
0.499984
0.499968
0.499989
0.499985
0.499966
0.499981
0.460896
0.468021
0.459382
0.498929
0.499513
0.498914
0.499965
0.499975
0.49995
0.499966
0.499952
0.499969
0.499914
0.499918
0.499959
0.329484
0.33078
0.240914
0.244397
0.499987
0.499989
0.499971
0.499973
0.49535
0.485542
0.484116
0.497336
0.496723
0.497287
0.491213
0.4911
0.499913
0.499878
0.499866
0.499886
0.499913
0.484034
0.483229