/*--------------------------------*- C++ -*----------------------------------*\
  =========                 |
  \\      /  F ield         | OpenFOAM: The Open Source CFD Toolbox
   \\    /   O peration     | Website:  https://openfoam.org
    \\  /    A nd           | Version:  10
     \\/     M anipulation  |
\*---------------------------------------------------------------------------*/
FoamFile
{
    format      ascii;
    class       volScalarField;
    location    "19";
    object      eff_dif;
}
// * * * * * * * * * * * * * * * * * * * * * * * * * * * * * * * * * * * * * //

dimensions      [0 2 -1 0 0 0 0];

internalField   nonuniform List<scalar> 
75457
(
-0.0337024
-0.0304775
-0.0262899
-0.0239696
-0.0193726
-0.0206575
-0.0294565
-0.0291093
-0.0184927
-0.0131044
-0.01696
-0.0184662
-0.0178651
-0.0156336
-0.0037481
-0.00421771
-0.00394015
-0.00409415
-0.00456294
-0.00408369
-0.00357324
-0.00424117
-0.00425329
-0.00451488
-0.00430617
-0.0046683
-0.00440242
-0.00125414
-0.00128174
-0.000793133
-0.000386748
-0.000751512
-0.000797422
-0.000831256
-0.000219903
-0.00124167
-0.00115918
-0.00148917
-0.00157253
-0.000491315
-0.000726555
-0.000520463
-0.000984044
-0.00927623
-0.00905697
-0.00824626
-0.00838136
-0.00876262
-0.00485041
-0.0053623
-0.00569018
-0.00515392
-0.00536832
-0.00545275
-0.00577595
-0.0057627
-0.00556744
-0.00576338
-0.00512134
-0.00544229
-0.00523362
-0.00507286
0.0318233
0.032085
0.0318245
0.03215
0.0323764
0.0324042
0.0320637
0.0321021
0.0323623
0.0321535
0.0318977
0.0321428
0.0321324
0.0318232
0.0320223
-0.00861026
-0.00971101
-0.00799248
-0.00997695
-0.0115546
-0.00560272
-0.00591582
-0.00816589
-0.00872569
-0.0084361
-0.0085953
-0.00585781
-0.00728761
-0.00582481
-0.00583076
-0.00707626
-0.00595287
-0.00667237
-0.00683277
-0.00685876
-0.0072044
-0.00679556
-0.0066386
-0.00780922
-0.00704171
0.032313
0.0322016
0.0324645
0.0324807
0.0323463
0.0321962
0.0321159
0.0325684
0.0325706
0.032183
0.0321938
0.0228772
0.0235407
0.0260138
0.0255856
0.0229412
0.024525
0.024558
0.0240255
0.0243833
0.026079
0.0258626
0.0264072
0.0269484
0.025698
0.0251346
0.0239338
0.0263611
0.0253542
0.0143698
0.0143311
0.0137466
0.0146396
0.0142302
0.0157695
0.0154519
0.0153404
0.0153283
0.0084067
0.00794578
0.00851697
0.00805657
0.00748584
0.00799927
0.00802376
0.00707077
-0.00675239
-0.00679558
-0.00618409
-0.0063845
-0.00677766
-0.00642656
-0.0061311
-0.00563619
-0.004099
-0.00413872
-0.00568926
-0.00541363
-0.00494317
-0.00565154
-0.00452453
0.0169813
0.0185896
0.0188328
0.0181692
0.0185911
0.0148599
0.0162477
0.017815
0.0168217
0.0177868
0.015104
0.0137825
0.0143769
-0.00914485
-0.00961908
-0.00948859
-0.00969964
-0.00946789
-0.00959859
-0.00892291
-0.0096197
-0.00946267
-0.009707
-0.00969419
-0.00952842
-0.0094543
-0.00957277
-0.00843248
-0.00706208
-0.00955828
-0.00694995
-0.00727505
-0.00886329
0.0130911
0.0138806
0.0125452
0.0132892
0.0114949
0.0123067
0.0146531
0.0143768
0.0134561
0.0106921
0.010669
-0.00740372
-0.00724997
-0.00766333
-0.00762109
-0.00757231
-0.00749993
-0.00733444
-0.00721826
-0.00682243
-0.00765057
-0.00740131
-0.00717828
-0.00753605
-0.00714552
0.00707496
0.00613235
0.00653002
0.00482302
0.0053818
0.00613774
0.00604781
0.00729607
0.00686887
0.00592996
0.00531255
0.00465532
0.00691629
0.00533943
-0.00685143
-0.00692848
-0.00665111
-0.00661325
-0.00691227
-0.00684911
-0.00693285
-0.00688629
-0.00708575
-0.006614
-0.00686266
-0.00634415
-0.00696783
-0.00705665
-0.00679647
-0.0067565
-0.00690738
-0.009268
-0.00907433
-0.00900507
-0.00899292
-0.0102303
-0.00875171
-0.00863879
-0.00805354
-0.00890406
-0.00937899
-0.00837556
-0.00906936
-0.00874012
-0.00865498
-0.00853479
-0.0087067
-0.00834956
-0.00881857
-0.00905947
-0.00880606
-0.00850969
-0.00895124
-0.00860397
-0.00835481
-0.00864184
-0.00400384
-0.00376838
-0.00405744
-0.00352204
-0.0035422
-0.00340085
-0.00320435
-0.00316655
-0.00313807
-0.00361815
-0.00393367
-0.0038018
-0.00306092
-0.00349006
-0.00341891
-0.000609444
-0.000468837
-0.000288448
-0.000531372
-0.000279905
-0.000378925
-0.000702305
-0.00103155
-6.9724e-05
-3.74171e-05
0.00015679
-6.99929e-05
-0.000131688
0.000122944
0.000554303
0.0002351
2.85232e-05
0.000271702
0.000115347
7.63477e-05
-1.1613e-05
-7.72857e-05
-0.00463556
-0.00492787
-0.00425751
-0.00440639
-0.0045981
-0.00455077
-0.00503476
-0.00502793
-0.005335
-0.00549536
-0.00506176
-0.0066627
-0.00677729
-0.00693527
-0.00691486
-0.0068446
-0.00661081
-0.00662329
-0.00702207
-0.00727319
-0.00702135
-0.00726962
-0.00638679
-0.00667324
-0.00683635
-0.00697031
-0.00677448
-0.00690157
-0.0131283
-0.0121711
-0.0118894
-0.0134031
-0.0158803
-0.0150428
-0.0151414
-0.0146182
-0.0142699
-0.0137806
-0.0151881
-0.00362233
-0.00374995
-0.00423596
-0.00405516
-0.00390559
-0.00419013
-0.00399249
-0.00460856
-0.00418108
-0.00424208
-0.00369375
-0.000203598
-2.10007e-05
-0.0002972
-0.000341572
-5.86196e-05
-9.41882e-05
-0.000380033
-0.000132395
-0.000506038
-0.00050534
-0.000624707
-0.000234796
-0.000404423
-0.000881632
-0.000919976
-0.00527811
-0.00449012
-0.00581775
-0.00527603
-0.00512073
-0.00702885
-0.00738393
-0.00700646
-0.00730016
-0.00739359
-0.00702377
-0.00777443
0.0505513
0.0553432
0.0439878
0.0466073
0.0494155
0.051492
0.0511242
0.053965
0.0466303
0.0510247
0.0492354
0.0502579
0.0464148
0.0508615
0.0450887
0.0466167
0.0485192
0.0435533
0.0353748
0.0349243
0.0357149
0.0364561
0.0373536
0.0383372
0.0355864
0.036202
0.0387051
0.0421883
0.0389216
0.0390998
0.0407791
0.0267531
0.0239816
0.0213925
0.0230207
0.0276493
0.0243509
0.0228984
0.0242953
0.0239475
0.0220556
0.0293286
0.0292968
0.0223764
0.0239193
0.0214113
0.0276237
0.0297262
0.029769
0.0257601
0.0257406
0.0264166
0.0277313
-0.00854578
-0.00889668
-0.00911598
-0.00910009
-0.00919998
-0.00862845
-0.00869287
-0.00881797
-0.00897117
-0.00863501
-0.00904956
-0.00863577
-0.00878036
-0.00873204
-0.00886843
-0.00883023
-0.0225017
-0.0250394
-0.0130512
-0.0208667
-0.0113074
-0.0179809
-0.0153366
-0.0125931
-0.0115313
-0.0161117
-0.0293183
-0.0245362
-0.0161552
-0.0222968
-0.0113129
-0.0138572
0.00257313
0.00241469
0.00257956
0.00342774
0.00380279
0.00441303
0.00222236
0.00189141
0.00355759
0.0035309
0.00442061
0.00406905
0.00379299
0.00371545
0.00355414
0.00289488
0.00215606
0.00297155
0.0344966
0.038482
0.037032
0.0336813
0.0350006
0.0377445
0.0412971
0.0403972
0.0352228
0.0412265
0.0429038
0.0411821
0.0372912
0.0340691
0.0348664
0.0359368
0.0275963
0.0269429
0.0274445
0.0272166
0.0263662
0.0281578
0.0287322
0.0281122
0.0274811
0.0284154
0.0278571
0.0270382
0.027894
0.0263147
0.0270001
0.0285309
0.0290084
0.012915
0.0127701
0.012485
0.012857
0.012845
0.0128941
0.0129726
0.0130597
0.0131015
0.0129482
0.0125785
0.0126452
0.0131652
0.0128116
0.0129106
0.0122081
0.0122039
-0.00447618
-0.00540326
-0.00700805
-0.00603212
-0.0050087
-0.00513923
-0.00473287
-0.00479009
-0.00539903
-0.00490952
-0.00665563
-0.00674075
-0.00575803
-0.00384492
-0.00627375
-0.00537395
-0.0053906
-0.00607676
-0.00378712
-0.00385218
-0.00371757
-0.00367887
-0.00313587
-0.00342056
-0.00359727
-0.00362591
-0.00314914
-0.00333096
-0.00346115
-0.00311446
-0.00302309
-0.00338371
-0.00577687
-0.00538262
-0.00623722
-0.00709979
-0.00711228
-0.00648824
-0.00617506
-0.00613571
-0.00603365
-0.0069628
-0.00699279
-0.00681378
-0.00639154
-0.00588394
-0.00618509
-0.00688301
-0.00709384
-0.00721502
0.0221065
0.017866
0.0186767
0.0254005
0.0217219
0.0158632
0.0187981
0.018904
0.0154014
0.0237526
0.0189381
0.0160532
-0.00814493
-0.00786538
-0.00766982
-0.00752735
-0.00789378
-0.00769622
-0.00636917
-0.00672913
-0.00778731
-0.00773886
-0.00763497
-0.00679603
-0.00676107
-0.00744905
-0.00753405
-0.00737175
-0.00469017
-0.00528246
-0.00426715
-0.00479033
-0.00595135
-0.00577453
-0.0058455
-0.0046984
-0.00443222
-0.00448374
-0.00453231
-0.00525725
-0.00582711
-0.0048685
-0.00438291
-0.00517171
0.00517615
0.00441021
0.00374754
0.006969
0.00785072
0.00543404
0.0061446
0.00291103
0.00447455
0.00517393
0.00675176
0.00567599
0.00673437
0.00755184
0.00728238
0.0042078
0.00431634
0.00560732
0.00369972
-0.00237273
-0.00139463
-0.0023824
-0.00377388
-0.00286124
-0.00188491
-0.00356666
-0.00312922
-0.00241453
-0.00277278
-0.00230919
-0.00366647
-0.00253225
-0.00212639
-0.00166055
-0.00135791
-0.00130815
-0.00204712
-0.00164019
-0.00171625
-0.00149839
-0.00151599
-0.00200209
-0.00133939
-0.00179168
-0.00150567
-0.00218102
-0.00119864
-0.00123211
-0.00131957
-0.0012012
-0.00158513
-0.0033279
-0.00395559
-0.00301359
-0.0016248
-0.00209264
-0.00577524
-0.00325871
-0.00292622
-0.00293841
-0.00403484
-0.00547043
-0.00723064
-0.0075389
-0.00748798
-0.00726821
-0.00838493
-0.00875384
-0.00847103
-0.00943369
-0.00677957
-0.00653833
-0.00877854
-0.00990093
-0.00956971
-0.00861237
-0.00842053
-0.00974127
-0.00862539
-0.00828488
-0.00881045
-0.00887917
-0.00773714
-0.00914118
-0.00921387
-0.00892838
-0.00911986
-0.00886162
-0.00906855
-0.00910209
-0.00889575
-0.00871487
-0.00884702
-0.00907211
-0.00884801
-0.00893185
-0.00883736
-0.00896342
-0.00889912
-0.0088873
-0.00625194
-0.00679158
-0.00820429
-0.00807741
-0.0070306
-0.00758765
-0.00808542
-0.00781434
-0.00713704
-0.00796746
-0.00713717
-0.00414275
-0.0049264
-0.00317791
-0.00312053
-0.00335659
-0.00311535
-0.0032446
-0.00225299
-0.00328516
-0.00357
-0.00316904
-0.00334135
-0.00284574
-0.00268829
-0.0025028
-0.00248436
-0.00278715
-0.00271436
-0.00215378
-0.00264177
-0.00242278
-0.00279768
-0.00276844
-0.00235401
-0.00237845
-0.00250535
-0.0021871
-0.00247613
-0.00231853
-0.00213033
-0.00237054
-0.00207441
-0.00230267
-0.00242927
-0.00215183
-0.00558118
-0.00581552
-0.00571923
-0.00565327
-0.00524675
-0.00471899
-0.00567054
-0.00448971
-0.00526608
-0.0040441
-0.00481723
-0.00520514
-0.00543467
-0.00498729
-0.0047797
-0.00619721
-0.00514448
-0.00460142
-0.0043689
-0.00432258
-0.00616192
-0.00631629
-0.00649527
-0.00645273
-0.00575557
-0.00589743
-0.00682932
-0.00656702
-0.00629615
-0.0056419
-0.00583902
-0.00578075
-0.00559433
-0.00602179
-0.00598939
-0.0063683
-0.00537537
-0.00564552
-0.00602782
-0.00632502
-0.00545168
-0.00567781
-0.00603889
-0.0070652
-0.00592095
-0.00660895
-0.0063795
-0.00772631
-0.00589984
-0.00567787
-0.00569378
-0.00640405
-0.00686372
-0.00630712
-0.00697721
-0.00602839
-0.00593603
-0.00630402
-0.006015
-0.00579982
-0.00534458
-0.0067015
-0.00593724
-0.00680509
-0.00772135
-0.00714919
-0.00686721
-0.00634771
-0.00636217
-0.00726941
-0.00736373
-0.00794218
-0.00686163
0.0230925
0.0236036
0.0245604
0.0235778
0.0243825
0.023094
0.0241323
0.022979
0.0235625
0.0245574
-0.0087032
-0.00853303
-0.00824437
-0.00829671
-0.00884856
-0.00881583
-0.00834539
-0.00847963
-0.00881565
-0.00820039
-0.00857752
-0.0083761
-0.00834777
-0.00880574
-0.00839961
-0.00866663
-0.00879408
-0.00918031
-0.00864062
-0.00954106
-0.00928525
-0.00900821
-0.00969327
-0.00852372
-0.00931716
-0.00848513
-0.0082835
-0.00928153
-0.00952678
-0.00835205
-0.00934285
-0.009436
-0.00897413
-0.00863607
-0.00964341
-0.00894299
-0.00895276
0.0123532
0.0127546
0.0134472
0.0128709
0.0125468
0.013667
0.0102491
0.0118275
0.0120542
0.0117064
0.0109997
0.013103
0.0125799
0.0131095
0.0122234
0.0117908
-0.0131847
-0.0142934
-0.0132719
-0.0127227
-0.0128505
-0.0107226
-0.0113778
-0.0121489
-0.0128781
-0.0133775
-0.00961276
-0.0110815
-0.0122322
-0.010685
-0.0117292
-0.00974877
-0.00941486
-0.00943353
-0.0104962
-0.0106176
-0.0112655
-0.00951119
-0.00906953
-0.00878538
-0.00995569
0.0131558
0.0121484
0.0117817
0.0118538
0.0119137
0.0104181
0.0100847
0.00949892
0.00954855
0.0101136
0.0102484
0.00932757
0.011115
0.0102047
0.0119193
0.0120219
0.0100525
0.0111786
0.0107897
-0.00829346
-0.00829808
-0.0089005
-0.00826505
-0.00977028
-0.00849203
-0.00803751
-0.00863756
-0.00874049
-0.00832269
-0.008207
-0.00896608
-0.00910112
-0.0096115
-0.00906925
-0.00848344
-0.00827662
-0.00925255
-0.00898661
-0.0062283
-0.00753532
-0.00676499
-0.00654096
-0.00641704
-0.00686516
-0.00645341
-0.00606312
-0.00711228
-0.00673451
-0.00675364
-0.00639838
-0.00685936
-0.00674667
-0.00700023
-0.00705104
0.0224887
0.0230627
0.0224024
0.0221905
0.0234786
0.0243501
0.0240642
0.023174
0.0232203
0.0240489
0.0242169
0.0233013
0.0241188
0.0246761
0.0253331
0.0247843
-0.0109609
-0.012697
-0.00915371
-0.00887066
-0.0142061
-0.0170556
-0.00610485
-0.00712722
-0.0098555
-0.0124611
-0.00928737
-0.00989128
-0.011375
-0.0168615
-0.0151471
-0.00762991
-0.0127068
-0.00962021
-0.0132172
-0.0155673
0.0588653
0.0529164
0.0485691
0.0482326
0.0573412
0.0586432
0.052152
0.0569588
0.0511391
0.0531333
0.0507143
0.051149
0.0479729
0.0478384
0.0535558
0.0212231
0.0199186
0.0245386
0.0262374
0.0240806
0.0210093
0.0263612
0.0229187
0.0253651
0.0286271
0.027575
0.0288025
0.0305231
0.0283501
-0.0139083
-0.0146445
-0.0141936
-0.0149439
-0.0130492
-0.0133103
-0.0116806
-0.0105462
-0.0128812
-0.0128281
-0.0110053
-0.0105384
-0.013337
-0.0116168
-0.0112789
-0.0119179
-0.00502482
-0.00475236
-0.00478657
-0.00495249
-0.00476313
-0.00505217
-0.00468173
-0.00501464
-0.00519016
-0.00456183
-0.00462053
-0.00456821
-0.00512306
-0.00494609
-0.0046235
-0.00481993
-0.00476843
-0.00508414
-0.00489838
-0.00942381
-0.00941912
-0.00905669
-0.00982492
-0.00995428
-0.00978455
-0.00906894
-0.00988625
-0.00976151
-0.00829088
-0.008948
-0.00881507
-0.00920451
-0.00891031
-0.010099
-0.00977212
-0.00860679
-0.00902326
-0.00876314
-0.00886771
-0.00851876
-0.0085913
-0.00905604
-0.00852415
-0.00863246
0.0312824
0.0304618
0.0305276
0.0309645
0.0311348
0.0307524
0.0305377
0.0305683
0.0312763
0.0310771
0.0311336
0.030887
0.0309577
0.0307392
0.0310527
0.0311164
0.0311467
0.030943
0.0305948
0.0312108
-0.00616154
-0.00697686
-0.00609974
-0.00662027
-0.00610184
-0.00578433
-0.00593881
-0.00671565
-0.00571632
-0.00602658
-0.00623853
-0.00642538
-0.00411898
-0.00420897
-0.0038302
-0.00369367
-0.00351625
-0.00418216
-0.00418275
-0.00431088
-0.00409274
-0.00367541
-0.00366935
-0.00397727
-0.00399631
-0.00366328
-0.00379206
-0.00373203
-0.00390839
-0.00376417
-0.00287315
-0.00268665
-0.00287947
-0.00269467
-0.00283783
-0.00310718
-0.00319143
-0.0033059
-0.00341287
-0.00272459
-0.00316337
-0.00280461
-0.003419
-0.00320722
-0.00302348
-0.00289057
-0.00343386
-0.00308526
-0.00282111
-0.00230928
-0.00235703
-0.00259837
-0.00181716
-0.00225739
-0.00209093
-0.00196373
-0.00276411
-0.00236134
-0.00298892
-0.00302963
-0.00217328
-0.00216073
-0.00216907
-0.002931
-0.00298662
-0.00556044
-0.00562485
-0.00605691
-0.00589979
-0.00591426
-0.00548765
-0.00552787
-0.00609187
-0.00598436
-0.00882262
-0.00858668
-0.00864984
-0.00881319
-0.00894763
-0.00896155
-0.00878531
-0.00905927
-0.00873735
-0.00862359
-0.00893922
-0.00873816
-0.00395372
-0.00379362
-0.00396217
-0.00395988
-0.00387841
-0.00409258
-0.00404222
-0.00421736
-0.00416697
-0.00398915
-0.00445779
-0.00441704
-0.00436051
-0.00445954
-0.00427284
-0.00443255
0.0317526
0.031969
0.0316831
0.0314271
0.0310847
0.0311703
0.0306837
0.0306251
0.0308927
0.031423
-0.00664117
-0.00638244
-0.00663923
-0.00640073
-0.00674852
-0.00662468
-0.00688951
-0.00685618
-0.00704441
-0.00703825
-0.00680184
-0.00659574
-0.00683139
-0.00721797
-0.00713615
-0.0069263
-0.00684092
-0.00677793
-0.00485822
-0.00513443
-0.0047688
-0.00484331
-0.00478714
-0.00477103
-0.00499048
-0.0048015
-0.00494615
-0.00535179
-0.00510876
-0.00516762
-0.00493046
-0.00511395
-0.00471771
-0.00480509
-0.00499195
-0.00479761
0.00945557
0.0088339
0.00824333
0.00922946
0.00742029
0.00684292
0.00987162
0.00933629
0.00800856
0.00955568
0.00857349
0.0076489
0.00842967
0.00846649
0.0315325
0.0314297
0.0313124
0.0311379
0.0315849
0.0311821
0.0310021
0.031036
0.0313411
0.0311593
0.0313268
0.0314511
0.0310291
0.0309945
0.0308834
0.0309257
0.0313026
0.0310984
0.0312425
0.0310124
0.0439401
0.0425843
0.0357349
0.0388343
0.0283781
0.0327261
0.0182082
0.0339699
0.0339132
0.0312861
0.0370244
0.0271721
0.0388431
0.0440034
0.0397854
0.0472955
0.0288959
0.0401448
0.0356511
-0.00786596
-0.0083158
-0.0048157
-0.00339076
-0.00927095
-0.0114258
-0.0108507
-0.0130972
-0.00443711
-0.00458295
-0.0150045
-0.0115545
-0.00638244
-0.0108176
-0.0121109
-0.00732453
-0.00760619
-0.0122012
-0.00947152
-0.00924951
-0.000968203
-0.00156306
-0.00150781
-0.00151474
-0.00189712
-0.00108266
-0.00235378
-0.00165117
-0.00167929
-0.00170275
-0.0016815
-0.00155965
-0.0023311
-0.00135406
-0.00236979
-0.00234899
-0.00209088
-0.00211136
-0.00130479
-0.0130105
-0.0127489
-0.0134894
-0.0130807
-0.0136958
-0.0145368
-0.0118955
-0.0123915
-0.0131452
-0.0104158
-0.0117307
-0.0121754
-0.01241
-0.0127287
-0.0127186
-0.0131936
0.0331435
0.0330942
0.032961
0.0330374
0.0333106
0.0333281
0.0332048
0.0332337
0.0330438
0.0329076
0.0334284
0.0332044
0.0333685
0.0333632
0.0329867
0.0329095
0.0330778
0.033249
0.0333801
0.0329745
0.000507279
0.000355369
0.000923028
0.00134347
-0.00161669
-0.00170471
-0.00214051
-0.00300592
-0.000888898
0.000517652
0.000897297
-0.00162132
-0.00196965
-0.00250277
-0.0032379
-0.00312018
-0.000778705
-0.00261519
-0.00236338
-0.00129586
0.0333549
0.0332523
0.0333358
0.0333788
0.0333681
0.0333809
0.033303
0.033437
0.0334992
0.0335032
0.033569
0.0332825
0.0334526
0.0334141
0.0335279
0.0335096
0.0333983
-0.00479738
-0.00483388
-0.00488485
-0.00517517
-0.00511735
-0.004887
-0.00464595
-0.00490845
-0.00503587
-0.00536671
-0.00466583
-0.00424466
0.0314868
0.031301
0.0318469
0.031848
0.0316077
0.0315502
0.0312188
0.0314326
0.031647
0.0318137
0.0318526
0.0314828
0.0313292
0.0314458
0.031241
0.031445
0.0312435
0.0315047
0.0315711
0.0312317
0.0314729
0.0251367
0.0247003
0.0247977
0.0252121
0.0252437
0.0244095
0.0247918
0.0264298
0.0265964
0.0263813
0.0256982
0.0253354
0.0249768
0.0249186
0.024938
0.0256313
0.0255131
0.0255257
0.0100846
0.0103422
0.0104283
0.0100118
0.0102722
0.010979
0.0106229
0.0106656
0.0104067
0.0115684
0.0114015
0.0116473
0.0114786
0.0105457
0.0102747
0.0513639
0.0462918
0.0404617
0.0418815
0.0482184
0.0463191
0.0577857
0.0431468
0.0500041
0.0448985
0.0573457
0.0571539
0.0528723
0.0461285
-0.000495473
-0.000150871
-0.000740971
-0.00130623
-0.0011837
-0.00146361
-0.000534693
-0.000693958
-0.000885009
-0.000595873
-0.00136961
-0.000957241
-0.000627237
-0.000131792
-0.000315844
-0.000824452
0.0269732
0.0249179
0.0265575
0.0247576
0.0244221
0.0248116
0.025134
0.0251877
0.026043
0.0264462
0.0289031
0.028393
0.0274115
0.0297275
0.0303137
0.0277306
0.0287627
0.0326599
0.0326235
0.0322245
0.0323213
0.0324269
0.0324748
0.0326955
0.0327309
0.0321931
0.0323081
0.0326419
0.0326722
0.0326266
0.0325088
0.0324637
0.03263
0.0324386
-0.00983254
-0.00763038
-0.00769995
-0.01067
-0.00674784
-0.011878
-0.0170684
-0.00690005
-0.0094549
-0.0103868
-0.00946861
-0.00886859
-0.00972064
-0.00725058
-0.015633
-0.0156341
-0.0129079
-0.0138145
0.0199034
0.0195612
0.0211576
0.0208298
0.0201384
0.0188341
0.0192422
0.0207815
0.0212537
0.0208609
0.0206193
0.0209191
0.0192586
0.0190094
0.0183714
0.0201508
0.0190423
0.0196617
0.0186238
0.0201233
0.0194272
0.0191945
-0.0042762
-0.00474132
-0.00449156
-0.0042255
-0.00362932
-0.00381482
-0.00256166
-0.0029097
-0.00368195
-0.00456249
-0.00408081
-0.00394139
-0.00297812
-0.00292235
-0.00293674
-0.00292264
-0.00384375
-0.00436953
-0.00381879
-0.00383701
-0.00424868
-0.00412449
-0.00395772
-0.00421125
-0.00446247
-0.00423123
-0.00437995
-0.00366319
-0.00371035
-0.00363729
-0.00376731
-0.00375914
-0.0043842
-0.00429994
-0.00430829
-0.00404772
-0.00367993
-0.00413937
-0.00462298
-0.0044662
-0.00452477
-0.00468678
-0.00490868
-0.00494209
-0.0044575
-0.00480731
-0.00447365
-0.00461367
-0.0043687
-0.00481543
-0.00405315
-0.00436951
-0.00417032
-0.00487294
-0.00452065
-0.00417323
-0.00487552
-0.00671636
-0.0071659
-0.00701696
-0.00846333
-0.0057021
-0.0044679
-0.00753147
-0.00740992
-0.00263377
-0.0032742
-0.00108051
-0.00445211
-0.00209303
-0.00465865
-0.00414664
-0.00597045
-0.00552973
-0.00397075
-0.00352638
-0.000266053
-0.00238367
-0.000957894
0.00828214
0.00665581
0.0059908
0.00647994
0.00708737
0.00867297
0.00855585
0.00749702
0.00677624
0.00593327
0.00633735
0.0064907
0.00612347
0.00716402
0.00702628
0.00810159
0.00688715
0.00614992
0.00680707
-0.00710458
-0.00667143
-0.00688841
-0.006923
-0.00704261
-0.00709903
-0.00726999
-0.00757156
-0.00709941
-0.00765514
-0.00716402
-0.0070131
-0.00704558
-0.00697841
-0.0070322
-0.00700965
-0.00704921
-0.00312728
-0.003329
-0.00477373
-0.0042705
-0.0040604
-0.00432977
-0.00455001
-0.00422668
-0.00361564
-0.00443543
-0.00381812
-0.00445278
-0.00411301
-0.00417626
-0.00408495
-0.00475427
-0.00491704
-0.00517062
-0.0037642
-0.00448505
-0.00370458
-0.00471294
-0.00433944
-0.00455036
-0.00463588
-0.00327809
-0.0044847
-0.004347
-0.0040476
-0.00385122
-0.00492221
-0.000208192
-0.000457705
-0.00020349
-3.71592e-05
-0.00013501
-0.000238895
-0.000328743
-0.00034555
-8.50439e-06
-0.000200087
-0.000445637
-0.000400272
-0.000600592
-0.000580602
-0.00015866
-0.000304205
-0.000669857
-0.000569135
-0.000579771
-0.000559316
-0.000254027
-6.56301e-05
-0.000772306
-0.000109011
-0.000317427
-0.000294093
-0.000591046
-0.000717589
-0.000347606
-0.000424059
-0.000280626
-3.05422e-06
-4.34424e-05
-0.000331931
-0.000693755
-0.000322084
-0.000278577
-0.000670557
-0.000112713
-0.000308424
-0.0111445
-0.0122584
-0.01513
-0.0158095
-0.0156947
-0.0163762
-0.0121596
-0.013259
-0.0138634
-0.00986374
-0.0120248
-0.0126607
-0.0148242
-0.0140702
-0.0140677
-0.0125842
-0.0123817
0.00114419
0.00115228
0.000754294
0.00204992
0.00139885
0.000521179
0.000252259
0.00211808
0.0018256
0.000862511
-0.00817654
-0.00810077
-0.00840339
-0.00863409
-0.00794101
-0.00790418
-0.00829297
-0.00861085
-0.00866925
-0.008409
-0.00819144
-0.0080335
-0.00790229
-0.00798938
-0.00779008
-0.00822658
-0.00804286
-0.00821474
-0.0068326
-0.00682704
-0.00693953
-0.00662656
-0.00703951
-0.00667188
-0.00680723
-0.00660039
-0.00630499
-0.0063646
-0.00705201
-0.00715555
-0.0068266
-0.000648061
-0.000353514
-0.000815532
-0.00046046
-0.00100448
-0.00126801
-0.000906153
-0.000272681
-0.000240269
-0.000718421
-0.00106353
-0.000914899
-0.000217743
-0.000174855
-0.00759726
-0.00756484
-0.00790582
-0.00773939
-0.00763704
-0.00763275
-0.00785761
-0.00778097
-0.00778923
-0.0078346
-0.00785536
-0.00804736
-0.00788188
-0.00767141
-0.00829694
-0.0190209
-0.0183362
-0.0180543
-0.01789
-0.017263
-0.0168306
-0.019831
-0.0190014
-0.0188349
-0.0192763
-0.0199184
-0.0196664
-0.0177174
-0.0176822
-0.0181126
-0.0181784
-0.0184643
-0.0191689
0.0321896
0.0321857
0.0324438
0.0317862
0.0319015
0.0318631
0.0319718
0.0317912
0.0321144
0.0320912
-0.00723559
-0.00729327
-0.0072808
-0.00751794
-0.00718827
-0.00749774
-0.00715999
-0.00724759
-0.00705272
-0.00713632
-0.00716772
-0.00744939
-0.00751971
-0.007286
-0.00753913
-0.00715991
-0.00727811
-0.00732476
-0.00712686
-0.00729752
-0.007364
-0.00730912
-0.00408849
-0.00388798
-0.00408578
-0.00387465
-0.0037353
-0.00367301
-0.00349304
-0.00367111
-0.00342584
-0.00353553
-0.00332444
-0.0033211
-0.00326404
-0.00350828
-0.00328874
-0.00327816
-0.0031305
-0.00348013
0.0338639
0.0348303
0.0361033
0.0347985
0.0333604
0.0358482
0.0340332
0.0349786
0.0312863
0.0331395
0.0347153
0.0318962
0.03223
0.0309884
0.0297062
0.0328107
0.0306113
0.0294806
0.0305565
0.0340374
0.0318773
0.030918
0.028328
0.0336449
0.0343617
0.03579
0.0352293
0.0396842
0.0389038
0.0361077
0.0387197
0.0318975
0.0311704
0.0395198
0.0405501
0.0371221
0.03986
0.03324
0.033354
0.0334131
0.0332259
0.0333285
0.0332241
0.0333973
0.0333537
0.033204
0.0333272
0.033152
0.0331904
0.0334046
0.0333463
0.0333474
0.0334005
0.0328026
0.0286637
0.0282458
0.0306179
0.0317175
0.0335508
0.0314582
0.0315378
0.0278696
0.0271961
0.0319365
0.0297337
0.0313241
0.0285787
0.0306954
0.028407
0.0281507
0.0294967
0.0300812
0.028901
0.0295852
0.0307368
0.0305854
0.0298369
0.0291089
0.0307473
0.031165
0.0306734
0.0252907
0.0248245
0.0270803
0.0284344
0.0165445
0.015524
0.0256466
0.0254714
0.0162766
0.0184914
0.0210651
0.0209457
0.0226897
0.020174
0.01769
0.0155984
0.0310516
0.0302073
0.0305675
0.0310812
0.0302827
0.0316063
0.0312032
0.0304051
0.0304252
0.0332764
0.0328437
0.0325272
0.0319752
0.0308507
0.0319843
0.0314207
0.0324856
0.031871
0.0312121
0.0327653
0.0107772
0.0126112
0.00729838
0.0043477
0.00551916
0.00839965
0.0157686
0.00740794
0.0112827
0.0112478
0.00494572
0.00996909
0.0107186
0.00759372
0.0105641
0.0172192
0.0172962
0.0157357
0.013776
0.0121091
0.0210799
0.0182041
0.0182824
0.0154672
0.0194306
0.0194956
0.0195439
0.0168894
0.0154457
0.0165045
0.0166266
0.0174082
0.0177233
0.0325811
0.0326236
0.0324434
0.0323379
0.0329904
0.0329603
0.0325485
0.032391
0.0331376
0.0331495
0.032601
0.0328816
0.0331316
0.0330998
0.0329994
-0.00923991
-0.00898433
-0.00947167
-0.00942873
-0.00992406
-0.00885534
-0.0087342
-0.0105989
-0.0102185
0.0348013
0.0339275
0.0329148
0.0328553
0.0336018
0.0329684
0.0352077
0.0326683
0.0364299
0.0349823
0.0327698
0.0346285
0.0352713
0.0356408
0.0361012
0.031879
0.0321864
0.0339694
0.0361454
0.0348148
0.0323759
0.0332545
0.00715658
0.00786013
0.00716034
0.00528766
0.0062984
0.00718013
0.00403058
0.00526896
0.00558188
0.00345236
0.00466137
0.00272895
0.00350355
0.00238969
0.0019499
0.00280201
0.00402924
0.00558614
0.00163639
0.00448159
0.031382
0.0296791
0.034441
0.0298633
0.0317713
0.038155
0.0354003
0.0315942
0.0353252
0.0309734
0.0334445
0.0393331
0.0371612
0.0378736
0.0412813
0.0345978
0.0338226
0.0321014
0.036584
0.0305704
0.0337632
0.0314514
0.0354064
0.0398032
0.0406996
0.0388389
-0.00735243
-0.00829251
-0.00786848
-0.00737094
-0.0076186
-0.00826417
-0.00778907
-0.00743872
-0.00876897
-0.00741359
-0.00767579
-0.00813958
-0.00752178
-0.00717399
-0.00707707
-0.00749383
-0.00739914
-0.00810695
-0.00758274
-0.00700202
-0.00703291
-0.00707758
-0.00704996
-0.00756201
-0.00713643
-0.007481
-0.0044914
-0.00424326
-0.00493075
-0.00540094
-0.00440028
-0.00463807
-0.00432583
-0.00317906
-0.0050722
-0.00249322
-0.00502419
-0.00390774
-0.00341052
-0.00412767
-0.00503697
-0.004983
-0.00438217
-0.00420454
0.0131335
0.0126259
0.00915591
0.0112114
0.00981644
0.00783555
0.00456505
0.00933471
0.00959774
0.00715475
0.00220761
0.00601637
0.00741521
0.0286928
0.0294789
0.029822
0.028448
0.0301094
0.0298884
0.0302714
0.0294008
0.0295365
0.0285143
0.0287104
0.0305983
0.0299575
-0.0107136
-0.010535
-0.0115076
-0.0109051
-0.0109051
-0.0115339
-0.0128163
-0.0122666
-0.0138262
-0.011658
-0.0118504
-0.0114563
-0.0128914
-0.00950521
-0.00817712
-0.0080204
-0.00848445
-0.00874018
-0.00916195
-0.00910475
-0.00936059
-0.00815676
-0.0081995
-0.00875332
-0.00817529
-0.00778869
-0.00836903
-0.00829411
-0.00742445
-0.00714063
-0.00737919
-0.00742757
-0.00748742
-0.00728285
-0.0072021
-0.00721748
-0.00703369
-0.00735175
-0.00733551
-0.00754269
-0.0074696
-0.00739709
-0.00712536
-0.00724012
-0.00774534
-0.00740159
-0.0074481
-0.00731762
-0.00735467
-0.00724669
-0.00726099
-0.00762348
-0.0073527
-0.00726095
-0.00742421
-0.00740487
-0.00738599
-0.00793361
-0.00448087
-0.00575727
-0.00579165
-0.00454576
-0.00529826
-0.00563578
-0.00627363
-0.00434366
-0.00439173
-0.00495415
-0.00498055
0.0261875
0.0278044
0.0268848
0.0280002
0.027248
0.0281681
0.0272688
0.0265054
0.0275993
0.0267128
0.028135
0.0258832
0.0274311
0.0362441
0.0390978
0.0413911
0.0497221
0.0474987
0.0359986
0.0530727
0.0522794
0.0393918
0.0450935
0.0376024
0.0398307
0.0479657
0.0518799
0.0546993
0.0431214
0.0449739
0.041583
0.051343
0.0493062
0.0475244
0.0445153
0.0370099
0.0370037
0.0369887
0.03569
0.0353954
0.0341283
0.0345276
0.0350794
0.0343109
0.0333383
0.0334225
0.0231164
0.0224494
0.0221268
0.0217254
0.0242521
0.0237385
0.0219814
0.0234327
0.0225895
0.0216521
0.0208655
0.0211591
0.0229226
0.0243282
0.0245141
0.0216639
0.0211111
0.0234752
0.0205417
0.034717
0.035008
0.034884
0.0348769
0.0356222
0.0354558
0.0352373
0.0350579
0.0350559
0.0354591
0.0362216
0.0359171
0.0363542
-0.00558485
-0.00148795
0.000897952
-0.00297266
-0.000929487
0.0027067
0.00251164
0.00325146
0.00399563
-0.00055491
0.00177794
-0.00567982
-0.00893122
-0.000553049
0.00278364
-0.0036214
-0.00136504
-0.00938862
-0.00458714
-0.0101688
-0.00321952
-0.00718712
-0.00705734
-0.00711881
-0.0072341
-0.00686457
-0.00699726
-0.00711763
-0.00748476
-0.00701714
-0.00685516
-0.00739912
-0.00717023
-0.00699547
-0.00700791
-0.00700278
-0.00703426
-0.00671406
-0.00698305
-0.0087781
-0.0101225
-0.00797678
-0.00798383
-0.00764478
-0.00931798
-0.00834508
-0.00831383
-0.00783101
-0.00832914
-0.0094951
-0.0114728
-0.00914159
-0.00893066
-0.00769569
-0.00595034
-0.00748505
-0.00705895
-0.00639133
-0.00780602
-0.00931402
-0.00713034
-0.00560962
-0.00650341
-0.00591571
-0.00767486
-0.00637902
-0.00283172
-0.00324618
-0.00350187
-0.00336604
-0.00370859
-0.0116832
-0.0137834
-0.0123617
-0.0136884
-0.0182381
-0.0115557
-0.0153879
-0.0188002
-0.0181564
-0.0225815
-0.0241103
-0.0205845
-0.0200213
-0.0208372
-0.0159091
-0.00220041
-0.0024227
-0.00226599
-0.00328056
-0.00302503
-0.00264589
-0.00283613
-0.00275663
-0.00294657
-0.00202086
-0.00149349
-0.00309327
-0.00286614
-0.00215912
-0.00107323
-0.0020513
-0.00296663
-0.00242476
0.0194221
0.0174705
0.0135663
0.0205105
0.00789864
-0.00241888
0.0197267
0.0101213
0.0187018
0.012742
0.0141978
-0.0153136
-0.0071957
-0.025594
0.00828876
0.00779847
0.00468791
-0.00470021
0.00199657
0.00681927
-0.0171664
-0.0167474
-0.0168151
-0.0152874
-0.01568
-0.0145339
-0.0144048
-0.0142185
-0.0156262
-0.0158501
-0.0138237
-0.0144987
-0.0150109
-0.0140924
-0.0100268
-0.00829625
-0.00907334
-0.0108497
-0.00641755
-0.00713809
-0.00861313
-0.0109545
-0.0084125
-0.00802036
-0.010845
-0.00961815
-0.00566189
-0.00636249
-0.00560888
-0.00620818
-0.00627184
-0.00655962
-0.00440273
-0.00545641
-0.00459004
-0.00723203
-0.0107092
-0.00590652
-0.011854
-0.0100436
-0.0119034
-0.0112306
-0.00142745
-0.00203994
-0.00175878
-0.00382526
-0.0061562
-0.00673739
-0.00859694
-0.00869997
-0.00313043
-0.00624813
-0.00361682
-0.00378727
0.000282652
-0.00135853
-0.00166859
-0.00142897
0.0021176
0.0018337
0.000864236
0.00387963
0.00392185
0.000365634
-0.00192494
0.000885866
0.0019996
0.0036271
0.00419653
-0.000347373
0.00204791
0.00175883
0.000270921
0.00142657
0.0143794
0.0150049
0.0120822
0.0125127
0.0150559