/*--------------------------------*- C++ -*----------------------------------*\
  =========                 |
  \\      /  F ield         | OpenFOAM: The Open Source CFD Toolbox
   \\    /   O peration     | Website:  https://openfoam.org
    \\  /    A nd           | Version:  10
     \\/     M anipulation  |
\*---------------------------------------------------------------------------*/
FoamFile
{
    format      ascii;
    class       volScalarField;
    location    "19";
    object      k;
}
// * * * * * * * * * * * * * * * * * * * * * * * * * * * * * * * * * * * * * //

dimensions      [0 2 -2 0 0 0 0];

internalField   nonuniform List<scalar> 
75457
(
1.93285
2.20695
1.32891
0.670957
1.42043
1.5796
1.72719
1.5772
0.490153
0.48499
0.441601
1.25211
1.07864
0.515356
0.0885567
0.0717563
0.0166414
0.0513396
0.0619487
0.0110937
0.0294077
0.0203411
0.0827047
0.0842933
0.0504372
0.102809
0.105623
0.11664
0.103348
0.164743
0.100692
0.144225
0.142692
0.0620073
0.0532778
0.071601
0.062965
0.146056
0.132665
0.064727
0.0671574
0.0603098
0.0644501
0.0703918
0.119869
0.0272227
0.0150419
0.0580015
0.61086
0.193891
0.389027
0.544367
1.29142
0.385537
0.223288
0.242462
0.994626
0.956851
0.818259
1.36715
1.1059
0.682914
0.452433
0.318423
0.0563078
0.328568
0.0870404
0.374932
0.4828
0.908111
0.463365
0.989909
0.362415
0.0291279
0.452132
0.129495
0.136713
2.3755
2.0559
1.68096
1.77054
1.88821
2.17243
1.8789
1.20459
1.22467
1.42787
1.62385
2.18375
1.49787
1.86953
1.7119
1.66403
1.56517
0.915618
0.333531
0.361609
0.397155
1.74338
0.844327
0.804039
1.25084
0.113919
0.0272708
0.0401017
0.055747
0.186883
0.0406303
1.07739
0.310988
0.375341
0.7809
0.837774
0.696716
0.0712561
0.833614
1.28815
0.456823
0.447624
1.54384
0.0187663
0.0721156
0.0769556
0.186045
0.444929
0.271101
0.823384
0.440236
0.844594
0.0933348
0.169686
0.905084
0.275422
0.588575
0.519241
0.870874
0.361346
0.744283
0.712662
1.3087
0.134159
0.265235
0.461058
0.150958
0.188302
0.652324
0.588645
0.525659
1.22671
0.702689
1.80742
1.10987
0.281428
0.197482
0.610618
0.972104
0.668234
1.24838
0.41327
0.875212
1.24632
0.311899
1.00197
0.00522756
0.00544444
0.00562708
0.00547014
0.00558333
0.00503323
0.00501088
0.00520047
0.00556087
0.00511456
0.005327
0.00517982
0.00505533
0.686372
0.730725
0.8805
1.12827
0.976578
1.21449
0.699824
0.913422
1.43642
0.527332
0.72725
0.857652
1.35518
2.82375
0.95722
0.595188
0.831163
0.925615
0.642214
1.3456
0.106429
0.247282
0.189025
0.14038
0.0919507
0.568815
0.714917
0.73892
0.471358
0.519084
0.890978
1.53062
1.48549
1.49671
1.20015
1.20364
1.56588
1.72726
1.07121
1.03353
1.78933
1.1505
1.89832
1.86434
1.68665
0.911537
0.942852
1.28972
0.885071
0.95321
1.82692
0.887356
0.834026
0.952014
0.232467
0.222592
1.25028
0.655642
0.873438
0.766555
1.13766
0.404091
0.436834
0.465626
0.474398
1.03587
1.20905
0.903285
1.22765
0.956533
0.729315
0.878443
1.14446
1.58948
1.08715
1.24163
0.697596
1.11641
0.725944
0.794246
0.412743
0.226715
0.321186
0.044818
0.119217
0.141813
0.424431
0.350986
0.922131
1.58389
1.09934
2.06152
1.43484
1.40034
1.60859
1.34547
0.837877
0.870542
0.89735
0.796888
0.97919
0.887974
1.18316
0.849629
1.05654
1.02171
0.969882
0.916209
0.767713
0.842404
0.682992
0.275098
0.312152
0.493517
0.408689
0.468485
0.713578
1.00076
0.963974
1.21398
1.04811
0.877299
0.860109
1.04843
0.905777
0.312222
0.587417
0.325814
0.332048
0.357246
0.353391
0.36233
0.489203
0.418661
0.46784
0.632087
0.347528
0.432883
0.797379
0.99001
0.332362
0.629854
0.431171
0.105226
0.649931
0.351826
0.571567
0.314437
0.150694
0.507075
0.442569
0.460892
0.992922
1.10555
0.604751
0.577293
1.11119
1.28199
0.538884
0.559832
1.18102
1.10994
1.87408
1.08897
1.07689
1.70666
0.840622
0.857358
0.837158
0.572573
0.880051
0.906049
0.999143
1.21976
0.909205
0.461341
0.869507
0.621218
0.99463
1.20395
1.24714
2.14596
0.873508
0.760901
1.35554
1.4805
1.41399
1.42191
0.392676
0.377318
0.460454
0.480287
0.70775
0.58897
1.13264
0.613528
0.675464
0.921047
1.60672
1.13043
1.02998
0.965404
1.04174
0.962108
0.848305
0.622493
0.199357
0.3162
1.25292
1.20123
0.879029
1.08455
0.334359
0.295007
0.767764
0.00402246
0.00418175
0.00374844
0.00373913
0.00424262
0.00444697
0.00397081
0.00426635
0.00417301
0.00529487
0.00378615
0.00371717
0.003675
0.00367927
0.00376946
0.00382489
0.00367501
0.00370063
0.00391651
0.00393687
0.00380684
0.00357323
0.00353781
0.00351908
0.00390629
0.00384067
0.00373613
0.00353592
0.00347862
0.00368894
0.00373025
0.00387875
0.00391007
0.00368954
0.00370873
0.00382037
0.00378294
0.00374425
0.0037849
0.00388927
0.00388343
0.00373355
0.00381583
0.00376063
0.00376498
0.00372373
0.00378388
0.00388249
0.0039955
0.0037488
0.00386948
0.00385082
0.00380737
0.194884
0.0704106
0.0740442
0.0677204
0.0713417
0.160372
0.0646104
0.0782261
0.0532157
0.187421
0.0518643
0.0534333
0.0560377
0.0617997
0.0451336
0.161766
1.47119
0.942096
0.85138
0.919633
0.41625
0.437356
0.764527
0.740802
0.417004
0.412036
1.86455
1.47366
1.4999
0.971574
0.466193
0.11623
0.0128616
0.018613
0.0779253
0.0761713
0.0473082
0.0181451
0.01741
0.0174562
0.0221009
0.0137119
0.0444853
0.0737028
0.0720872
0.0814028
0.248764
0.0901622
0.0561657
0.0549272
0.00400015
0.00406182
0.00405065
0.00399847
0.00392725
0.00413901
0.00414895
0.00379034
0.00393501
0.00411135
0.00411185
0.00439392
0.00414908
0.00397668
0.00397186
0.00400683
0.00491384
0.0046964
0.00497583
0.00472582
0.00453332
0.00502721
0.00542593
0.00511475
0.00496207
0.00511447
0.00505442
0.00487919
0.00511755
0.00487378
0.00496866
0.00539071
0.00541354
0.00449195
0.00478184
0.00454435
0.00475616
0.00467602
0.00455607
0.00351737
0.00694824
0.00429546
0.00452166
0.00406096
0.00448322
0.00429944
0.00444162
0.00423594
0.00427624
0.00356984
0.469702
0.373159
0.424363
0.515969
0.354539
0.546239
0.547245
0.612991
0.399256
0.397625
0.402727
0.541624
0.704971
0.488925
0.623275
0.399165
0.593104
0.63663
0.0536899
0.0530518
0.0623994
0.0848042
0.0309029
0.0980844
0.059693
0.0589774
0.0615027
0.116873
0.0684362
0.0647504
0.0643934
0.0397546
0.142475
0.131067
0.163599
0.0966086
0.173268
0.172338
0.192078
0.141251
0.122156
0.184027
0.188872
0.192816
0.141538
0.0846171
0.0908156
0.182878
0.112063
0.15537
0.00389218
0.00392384
0.00396231
0.00447205
0.00472195
0.00392039
0.00385846
0.00436946
0.00414785
0.00426299
0.00363741
0.0046096
0.313717
0.194933
0.432493
0.154462
0.371128
0.293246
0.303902
0.320832
0.389262
0.0933504
0.0676109
0.0773288
0.0920857
0.0736025
0.0777827
0.0852549
0.0163596
0.0843901
0.0113459
0.0717862
0.197047
0.166872
0.241814
0.154162
0.123829
0.0772073
0.0512411
0.0261867
0.16446
0.0431784
0.0518079
0.0723757
0.00554569
0.00152668
0.0411245
0.00802159
0.00168858
0.0571828
0.0428323
0.0137187
0.000145854
0.00297383
0.00072897
0.00211063
0.00308875
0.00282957
0.000791145
0.0566587
0.0509764
0.0510207
0.0165077
0.141188
0.113978
0.0743414
0.197958
0.108157
0.160316
0.121714
0.0636557
0.105967
0.0592497
0.173894
0.140032
0.117426
0.118863
0.320158
0.329184
0.271743
0.301241
0.284875
0.290881
0.204598
0.241534
0.305165
0.194267
0.201506
0.327983
0.228056
0.202273
0.224069
0.197817
0.198997
0.21544
0.200269
0.433661
0.492933
0.023103
0.0877538
0.330984
0.169955
0.0367641
0.0721229
0.570016
0.375757
1.31928
1.3195
1.33551
1.37224
1.40076
1.48834
1.37728
1.43338
1.20521
1.16521
1.37244
1.54284
1.55393
1.49734
1.54153
1.51085
1.42939
1.22327
1.30606
1.24434
1.30919
0.036776
0.0275497
0.0880683
0.0635284
0.07137
0.0312317
0.0544582
0.055375
0.0547735
0.164804
0.214782
0.274724
0.0273709
0.210021
0.383212
0.163746
0.271935
0.038535
0.151991
0.247114
0.495122
0.144446
0.177971
0.700544
0.592472
0.161878
0.4842
0.287335
1.28385
1.33098
1.35035
1.42395
1.26387
1.39033
1.43256
1.39745
1.35053
1.35189
1.41683
1.37232
1.42409
0.052606
0.0637176
0.0172661
0.021607
0.0199805
0.0175721
0.0299666
0.0367416
0.114761
0.0404949
0.0701318
0.0773608
0.0195935
0.0214364
0.0765497
0.0378322
0.0728183
0.0701074
0.0512292
0.0967139
0.116717
0.0430331
0.0716132
0.0238224
0.109297
0.0323413
0.0251454
0.12855
0.121506
0.0187032
0.0797489
0.0977655
0.0756777
0.0702036
0.126672
0.0291052
0.0537843
0.18237
0.1047
0.0430476
0.00541191
0.0130844
0.116441
0.203635
0.0864156
0.0882557
0.131675
0.181578
0.0831576
0.106739
0.104992
0.0600026
0.0595719
0.115211
0.129462
0.177339
0.0643136
0.0666852
0.098312
0.179875
0.110981
0.0801163
0.114453
0.0878408
0.452727
0.419933
0.0383253
0.0793366
0.121107
0.172062
0.0807275
0.0938601
0.174445
0.382487
0.511986
0.408708
0.119761
0.159337
0.0802604
0.28877
0.207421
0.0295982
0.0298396
0.0234652
0.0259226
0.0281973
0.0224685
0.0189491
0.0224612
0.0207896
0.0267551
0.0281607
0.0177824
0.027762
0.0290436
0.00382806
0.00375965
0.00390867
0.00394129
0.00394925
0.00385686
0.00402866
0.00391067
0.0042226
0.00433553
0.124656
0.0839046
0.131668
0.180128
0.0569231
0.0489122
0.168649
0.244534
0.0670569
0.141743
0.140599
0.140259
0.167306
0.0493354
0.161839
0.140319
0.0342295
0.62799
0.6853
0.640911
1.07093
0.970309
0.768056
0.988143
0.921124
0.954471
1.02487
0.591101
0.59167
0.740098
0.659293
0.884726
0.922562
0.886842
0.618024
0.673707
0.696775
0.00246651
0.00370593
0.00363161
0.0022034
0.00480909
0.0283125
0.0326362
0.00536788
0.00375582
0.00340121
0.0309531
0.0388612
0.00195701
0.0176961
0.0238194
0.0452995
1.95083
2.26355
2.54961
2.39973
1.81653
2.20901
1.7453
2.30612
2.83757
2.54331
1.92714
1.99349
2.25312
0.094691
0.131719
0.125428
0.0837949
0.0712566
0.0766416
0.121303
0.102806
0.0816301
0.0868437
0.0488035
0.0824236
0.0417363
0.116851
0.0947455
0.0548687
0.121718
0.109749
0.0495802
0.0449309
0.0436814
0.0536682
0.000827724
0.00295589
0.00256656
0.001645
0.00133764
0.0259275
0.105348
0.0039208
0.0372029
0.260479
0.293708
0.154868
0.143903
0.177533
0.0476757
0.159779
0.202677
0.154415
0.0540721
0.0529885
0.143593
0.0256682
0.0727054
0.0600139
0.0482623
0.0488542
0.0767854
0.0479606
1.05535
1.06493
1.29161
1.17528
1.07676
1.03499
1.13853
1.1228
1.26348
1.19948
1.2878
1.28423
1.34109
1.32672
1.31082
1.24682
0.0715305
0.165486
0.134819
0.0753148
0.0109207
0.0190222
0.0265843
0.0116856
0.0107858
0.0102139
0.0872451
0.0587654
0.0188009
0.000586336
0.0308119
0.0228127
1.15915
1.70823
1.13092
1.54435
1.33619
1.99025
0.495644
0.622007
0.460666
0.493213
0.50934
0.744314
1.46516
1.9015
1.25145
0.814914
1.01285
1.01672
0.747357
1.75129
0.0133252
0.00925379
0.00739554
0.00650511
0.00791464
0.00581124
0.00655528
0.00669291
0.00662029
0.0148245
0.0165827
0.00884406
0.00871952
0.00588939
0.0156245
0.0643918
0.0752645
0.126849
0.174125
0.241861
0.242707
0.305777
0.124302
0.420318
0.558496
0.490154
0.235079
0.634348
0.651147
0.02442
0.0439774
0.018458
0.0224405
0.0195569
0.0310229
0.0112887
0.00675488
0.0325274
0.00752344
0.0155045
0.00664148
0.0107713
0.00664268
0.00540833
0.00571544
0.0747303
0.0810093
0.0642815
0.0648242
0.224346
0.231997
0.0433041
0.122391
0.117703
0.0521174
0.221353
0.177186
0.268957
0.166767
0.1787
0.239519
0.245535
0.286425
0.287956
0.0114228
0.0568837
0.0293906
0.023747
0.0131361
0.119694
0.0358261
0.0514489
0.0677906
0.049284
0.0122763
0.0145842
0.0237086
0.0158081
0.0739427
0.0578347
0.0473276
0.107427
0.0750246
0.0906916
0.0396904
0.0579534
0.114548
0.0713792
0.0640632
0.0159349
0.0119049
0.0105509
0.0780588
0.00455216
0.00648194
0.0255104
0.0229701
0.0126957
0.0109984
0.0261387
0.0290088
0.0133761
0.0249412
0.00909275
0.00731098
0.00732694
0.00808067
0.0309337
0.0085487
0.0230615
0.0206993
0.0165512
0.0311276
0.0243898
0.0250968
0.0608117
0.0230714
0.0651073
0.0716828
0.0557603
0.0392582
0.528978
1.1579
1.6897
0.892685
1.3056
0.64974
0.808865
1.22707
1.42289
0.475733
0.955016
1.12534
1.63475
0.642067
1.11156
0.30664
0.821603
0.459059
0.415639
0.763734
0.91331
0.704134
0.407541
0.363886
0.359942
1.26493
1.26039
1.2777
1.42724
0.355528
0.364037
0.350604
0.317507
0.344273
0.631928
0.667592
0.57863
0.0425317
0.0842676
0.0247886
0.0412467
0.0223239
0.0218
0.0171226
0.024713
0.0211166
0.020649
0.0352968
0.0168225
0.0188184
0.0194891
0.0189695
0.0145114
1.14938
1.24652
1.09961
1.23865
0.460056
0.781588
1.29949
0.739778
0.619348
0.864082
0.798479
0.924309
0.206059
1.19767
1.36916
0.984497
1.1478
0.297567
0.0707991
0.94212
0.067159
0.993451
1.28152
0.409296
0.772939
0.299409
1.14479
1.47382
1.07773
0.123541
0.352457
0.449765
1.62489
0.368915
0.747377
0.83434
1.36708
0.383727
0.577659
0.567326
1.08126
0.317321
0.480828
1.54776
0.359898
0.723523
0.392607
0.930335
1.38659
0.746196
0.44313
1.09898
1.21324
0.366728
0.227498
0.86469
0.229104
0.826032
1.37416
0.817362
0.216854
0.25844
1.2653
0.833808
0.264739
0.237445
0.331433
0.254115
0.108821
0.171638
0.136059
0.267327
0.281545
0.0712469
0.0858594
0.0905476
0.216006
0.325926
0.13715
0.167798
0.0865265
0.22406
0.241372
0.0837975
0.078931
0.044605
0.0375781
0.0413568
0.0470198
0.121262
0.0689016
0.0448542
0.0673211
0.0487706
0.414842
0.707832
0.28231
0.0108504
0.0104586
0.0100556
0.010365
0.0111708
0.00938686
0.0333037
0.0390317
0.0611502
0.032203
0.00161242
0.0128937
0.0141476
0.00849786
0.0274228
0.0265586
0.0783462
0.0303905
0.00657888
0.00738426
0.779704
0.780843
0.732914
0.640358
0.952025
0.936021
0.949214
0.780301
0.577295
0.702012
0.741688
0.750481
0.711947
0.736005
0.630559
0.707663
0.59443
0.576561
0.581126
0.0278767
0.0135313
0.020068
0.0153168
0.544783
0.861933
0.232208
0.388128
0.0585243
0.0167711
0.383905
0.0768048
0.0295697
0.227178
0.672047
0.245644
0.133607
0.327157
0.139916
0.338236
0.135154
0.123363
0.224502
0.136525
0.220707
0.818473
1.03636
0.527802
0.53505
0.404704
0.311491
0.215052
0.35961
0.293865
0.626918
0.28256
0.184412
0.194335
0.283853
1.5103
1.42025
1.65431
1.75922
1.65552
1.91051
1.2203
1.29925
1.26033
1.27622
1.24443
1.64526
1.56601
1.21912
1.67209
1.84108
0.0235299
0.0222428
0.0247527
0.0299163
0.0303881
0.026908
0.0503695
0.0418813
0.0448316
0.0276902
0.0314438
0.0300565
0.0454844
0.0351456
0.0357997
0.0345137
0.0417245
0.0391459
0.0394251
0.0304046
0.729501
1.00803
0.602056
1.01407
0.461873
0.524981
0.186121
0.326947
1.12251
0.656903
1.1357
0.942336
0.243161
0.233608
1.15303
0.842638
1.12966
0.735934
1.42153
0.484065
0.0219339
0.0445865
0.0551425
0.0549543
0.0372834
0.0281725
0.0250215
0.0391218
0.0490288
0.0417588
0.0426127
0.0380429
0.0658477
0.031643
0.0840515
0.0765716
0.0784822
0.504803
1.10304
1.00002
1.92198
0.560293
0.649135
0.819802
0.879113
2.93074
0.836146
0.486115
1.6212
0.0119941
0.0104986
0.00903255
0.00412498
0.0114663
0.00834874
0.00770186
0.00524232
0.0049684
0.0136217
0.0088511
0.00475771
0.0570433
0.000277463
0.019657
0.00104392
0.0309825
0.0974859
0.00111146
0.0564098
0.0807273
0.164067
0.14828
0.00692607
0.0116617
0.247557
0.176696
0.262354
0.00928623
0.0212878
0.0351168
0.00782714
0.0170487
0.0201887
0.00773792
0.0710915
0.0210695
0.0301245
0.00987812
0.0526007
0.150528
0.0456293
0.0659706
0.0955333
0.360449
0.0136551
0.0140051
0.264153
0.472567
0.0370129
0.0231222
0.096874
0.242286
0.0647676
0.245373
0.248793
0.200209
0.104591
0.134977
0.216294
0.154919
0.152809
0.0800677
0.0258287
0.123483
0.0680989
0.0633515
0.0216116
0.0137315
0.021883
0.0272783
0.0504441
0.00194149
0.00389291
0.00258487
0.00262812
0.070109
0.069183
0.00865715
0.00108459
0.00484822
0.0360267
0.071493
0.0706641
0.0113775
0.0033116
0.00521238
0.134128
0.0766197
0.511986
0.35924
0.125261
0.485831
0.328687
0.219725
0.105008
0.00224976
0.00147725
0.0160466
0.053495
0.0047445
0.0209679
0.0213588
0.00740895
0.0269156
0.0188755
0.0204817
0.0246597
0.0248881
0.0106165
0.0110182
0.022772
0.0274552
0.0257705
0.0207338
0.0176611
0.0261279
0.0200768
0.114162
0.0721469
0.0647425
0.166852
0.0681973
0.558734
1.08866
0.0963738
0.248454
0.318746
0.223796
0.351277
0.309827
0.130702
0.847461
0.988405
1.22445
1.19001
0.499024
0.387949
0.229453
0.067406
0.0844581
0.381615
0.347296
0.154312
0.148321
0.145161
0.0819957
0.100892
0.156979
0.095769
0.0821629
0.12355
0.0719775
0.046979
0.128015
0.1942
0.124997
0.1227
0.374939
0.396424
0.394595
0.382918
0.394557
0.385303
0.392082
0.398299
0.413094
0.381842
0.370655
0.39908
0.454544
0.419177
0.397199
0.386322
0.492115
0.374241
0.418902
0.526295
0.507997
0.428025
0.955425
0.772136
0.590224
0.820385
1.2044
0.760587
0.446441
0.856731
0.46128
0.780532
0.823397
1.57572
1.64666
0.912675
1.49086
1.76238
1.11032
1.5763
1.08984
0.735574
0.501312
0.359912
1.42603
1.00792
1.03315
0.196751
0.337625
1.22355
0.270867
1.01094
0.893252
0.2506
0.225879
0.191076
0.808691
0.976354
0.990141
0.955232
0.892787
0.979907
0.987309
0.908151
1.00915
0.941924
0.93752
0.971167
0.936979
0.87153
0.89085
0.841499
1.03776
0.970765
0.965984
0.875212
0.917637
0.961888
0.906362
0.63405
0.208984
0.235611
0.265611
0.73163
0.543296
0.955083
0.647573
0.56068
0.213072
0.431983
0.753021
0.540406
1.14258
1.07003
0.432954
0.463349
0.507936
1.46894
0.907194
0.956849
0.650329
0.402082
0.97975
1.08806
0.467491
0.346377
0.25748
0.953907
0.814792
1.04194
1.33182
0.605739
0.899734
0.903022
0.263893
0.653373
0.709269
0.283536
0.278756
0.988167
0.78827
0.808542
1.14035
0.820185
0.852858
0.302147
0.279015
0.657633
0.304502
0.904862
0.984795
1.03659
0.973878
0.974358
0.804001
0.880921
0.771133
0.873836
0.80646
0.533092
0.52996
0.899258
0.637713
0.513021
0.770284
0.788994
0.0728448
0.0839471
0.0888186
0.0879523
0.0868983
0.0992645
0.0810885
0.0974218
0.073492
0.0717128
0.0753778
0.101601
0.0772295
0.0928287
0.0838293
0.092007
0.0815996
0.0817452
0.0836863
0.116282
0.0988871
0.0860382
0.119986
0.0947945
0.0749054
0.0824096
0.0949279
0.0455815
0.0307178
0.0752957
0.0487648
0.0198626
0.0144785
0.0281965
0.0260582
0.015354
0.0267599
0.0261435
0.0203187
0.0260613
2.0636
1.5417
1.56288
1.71728
1.43629
1.66102
2.44276
1.37702
1.49701
2.42191
1.53477
1.35992
1.4938
1.37415
3.6803
1.69909
2.54714
0.122914
0.0210336
0.136486
0.676782
0.544167
0.0271016
0.089882
0.0806222
0.0112315
0.261688
0.388442
0.643782
0.180598
0.171824
0.460857
0.677335
0.0949999
0.0980162
0.109159
0.107407
0.148869
0.180259
0.125024
0.919806
0.739777
0.156992
0.122079
0.271483
0.478563
0.769536
0.513969
0.603762
0.621879
0.767533
1.23421
1.6382
1.04049
1.49801
0.317634
0.630559
0.286816
0.0325898
0.0279483
0.0344911
0.0276707
0.0249698
0.0333216
0.026846
0.0263062
0.0371691
0.0460048
0.0369618
0.0335991
0.0279761
0.0341348
0.129925
0.164029
0.100926
0.107751
0.240747
0.0926233
0.105151
0.211131
0.341864
0.24767
0.405201
0.152608
0.153321
0.249275
0.0800166
0.541368
0.633816
0.525728
0.80562
1.16369
1.04768
1.47939
1.81675
0.797201
0.742624
1.53218
1.63271
1.19278
1.60706
1.28535
1.38634
1.52663
1.52454
0.0294515
0.041071
0.0249033
0.0242701
0.0273115
0.0239137
0.0282342
0.0222388
0.0220765
0.0174723
0.934813
0.922014
0.670885
1.13418
0.236337
0.19658
0.146308
0.294407
0.533861
0.652384
0.910522
0.93758
0.77338
0.176026
0.195453
0.068924
0.595766
0.822703
0.181572
0.188529
0.159296
0.189236
0.665747
0.520419
0.594179
0.480073
0.64739
0.669226
0.44904
0.768485
0.708979
0.668943
0.632156
0.671763
0.396127
0.733295
0.720897
0.458807
0.363124
0.670806
0.0069636
0.00685472
0.00651513
0.00698941
0.00662963
0.00633118
0.00669984
0.00656627
0.00614551
0.00645091
0.00627211
0.0065335
0.00675287
0.0065445
0.00628595
0.00601699
0.00612491
0.00591738
0.00626934
0.982587
1.06609
0.762568
0.910317
0.737553
0.73343
0.806456
0.645626
0.711671
0.660587
0.929452
1.02945
1.03541
0.908547
0.752494
0.723254
0.840802
0.929403
0.027736
0.0289373
0.0242721
0.0220759
0.0370017
0.0310577
0.0358725
0.0302553
0.0280206
0.047198
0.0354749
0.036878
0.0370077
0.0444462
0.0597932
0.057149
0.00401863
0.0041215
0.00411008
0.00403554
0.00407001
0.00400743
0.00399603
0.00395487
0.00397833
0.00397078
0.0039784
0.00393167
0.00398777
0.00460196
0.00456494
0.00468391
0.00467124
0.00459721
0.00446967
0.00496073
0.00471801
0.00508172
0.00475864
0.00487753
0.00486501
0.00479877
0.00494706
0.00463669
0.00431663
0.00480275
0.00406844
0.00449568
0.00445642
0.00239749
0.00405461
0.00425367
0.00444926
0.00428176
0.00461634
0.00381636
0.00426589
0.00424264
0.00463657
0.00448001
0.00883063
0.0088242
0.00861023
0.00800903
0.00813935
0.00846666
0.00787936
0.00791589
0.00823226
0.00831401
0.00998237
0.00982595
0.00840156
0.00802117
0.00826807
0.00832147
0.00976637
0.00867558
0.00888275
0.00869482
0.716195
0.708474
0.633471
0.39436
0.541984
0.474538
0.712109
0.564548
0.645466
0.312766
0.337622
0.630219
0.494079
0.582657
0.675693
1.0277
0.707608
0.847055
0.884451
0.958975
1.09774
0.843918
0.941759
0.968027
1.03927
1.10136
1.27647
1.06099
0.465359
0.432996
0.493354
1.03178
1.04384
0.0116709
0.0108921
0.0109273
0.00960722
0.0124178
0.0110855
0.00963335
0.00950236
0.0102601
0.0109181
0.00879713
0.0087135
0.00858037
0.00923129
0.00975008
0.273917
0.213871
0.199025
0.187423
0.34509
0.197657
0.273344
0.350836
0.396498
0.00809624
0.0085117
0.00749455
0.00751612
0.00817874
0.00736879
0.00728083
0.00771879
0.00703628
0.00679731
0.0068466
0.00668454
0.00703267
0.00786778
0.00735494
0.00686071
0.00691862
0.00715434
0.00782254
0.00819109
0.00697603
0.00717494
0.00269273
0.00420298
0.00241536
0.00285904
0.00419522
0.00778367
0.00327595
0.00252145
0.00191358
0.00267365
0.00218275
0.00280686
0.00319835
0.00203924
0.00248334
0.00298055
0.00292883
0.00640363
0.00317876
0.00794363
0.00409437
0.00401016
0.00382373
0.0042304
0.00478932
0.00415321
0.00437807
0.00461187
0.00425987
0.00401769
0.00385705
0.00372424
0.003765
0.0042675
0.00417448
0.00456406
0.00442486
0.00437322
0.00409354
0.00429039
0.00405669
0.00456761
0.00376455
0.00404656
0.00428757
0.0037063
0.0235905
0.0440365
0.0392794
0.030188
0.0134782
0.031004
0.000401612
0.00420809
0.0365075
0.0146791
0.0456072
0.0254857
0.0215457
0.00291055
0.00528048
0.0169233
0.00557239
0.00802324
0.002578
0.00506237
0.00569729
0.007175
0.0051521
0.017894
0.00542222
0.00841117
0.00601802
0.00600591
0.00572646
0.00630017
0.00776381
0.00559373
0.00637809
0.0184135
0.00977433
0.0108172
0.000455946
0.00744102
0.0102806
0.00934107
0.0091759
0.00803299
0.00924222
0.00754972
0.00373908
0.00380518
0.0043008
0.00374668
0.00365709
0.00462353
0.00395942
0.00370831
0.00364529
0.0037927
0.00457647
0.00370357
0.00348754
0.00547853
0.00600037
0.0055987
0.0050801
0.00559509
0.00597576
0.00641805
0.00578175
0.00554857
0.00557971
0.00550099
0.00601321
0.00569545
0.255588
0.163183
0.208864
0.267376
0.212067
0.155441
0.197047
0.210894
0.215329
0.293605
0.313742
0.271724
0.289019
0.0251445
0.0118016
0.0133955
0.0125984
0.0117504
0.024957
0.00764032
0.0294379
0.0118118
0.0109063
0.0122331
0.00835351
0.00672872
0.00641301
0.0109943
0.0130601
0.0124488
0.0233651
0.0208888
0.0331913
0.0128473
0.00786115
0.0450397
0.0393758
0.0909358
0.0286554
0.0425704
0.0253452
0.0138545
0.0377004
0.0178906
0.0169068
0.0216209
0.0134726
0.019843
0.0144993
0.0298567
0.0163662
0.0100148
0.0108848
0.0265745
0.0144189
0.0117959
0.014578
0.0184882
1.18593
1.24948
1.21378
1.03416
1.30248
1.24836
1.50159
1.40041
1.3672
1.47335
1.55936
0.00397876
0.00385939
0.00411841
0.00428495
0.00441987
0.00406074
0.00426469
0.00411366
0.00429621
0.004307
0.00407431
0.00409568
0.00417724
0.00230257
0.00895928
0.00724515
0.0460814
0.00631164
0.00627184
0.00313758
0.00354316
0.00647858
0.00782371
0.00445686
0.00550872
0.00573539
0.00494849
0.0102032
0.00415373
0.00531109
0.00509201
0.00826708
0.00448539
0.00456216
0.00465218
0.00357054
0.00382022
0.00306162
0.00206183
0.00461072
0.00337233
0.003468
0.00462169
0.00351358
0.00377159
0.00397812
0.0037971
0.00386352
0.00344406
0.00330609
0.00378958
0.00384227
0.00397477
0.00392981
0.00424841
0.00419003
0.00403005
0.00391914
0.00395053
0.00400847
0.00401528
0.00395919
0.00450129
0.00411145
0.00411091
0.0158827
0.0146067
0.0185486
0.0129952
0.0132511
0.0171458
0.0186986
0.0151667
0.0173659
0.0161048
0.0132966
0.0174578
0.0142767
0.000548293
0.0044608
0.00416468
0.00219869
0.00321149
0.0035059
0.00334845
0.00392013
0.00373514
0.00356294
0.0035509
0.0028154
0.00131863
0.00348192
0.00390959
0.00288293
0.00470905
0.000278769
0.00718128
0.0083383
0.00251088
0.009671
0.0136572
0.00907392
0.00859778
0.017889
0.015622
0.0128842
0.0229931
0.0240501
0.017889
0.0235527
0.0294554
0.0169838
0.017839
0.0213453
0.0243744
0.018353
0.0235328
0.297251
0.994365
0.228863
0.382982
0.302571
0.728943
0.0896908
0.0998724
0.742439
0.091188
0.335927
1.11132
0.409416
0.267771
0.388081
0.257652
0.0651765
0.288662
0.507071
0.125258
0.625525
0.340656
0.16749
0.0717749
0.264673
0.566987
0.593398
0.00824954
0.0158604
0.0165526
0.0120499
0.00837571
0.67079
0.0049302
0.556531
0.0479
1.17329
0.128515
1.13511
2.5203
1.98833
1.01675
2.14873
2.64266
0.930309
1.80919
0.348418
1.18116
1.01195
0.739266
0.843722
1.06752
0.814636
0.833795
1.06862
1.01086
0.74792
0.476359
0.876299
0.812843
0.497462
0.579142
1.15527
1.05375
0.749955
0.0406568
0.0799701
0.125836
0.112788
0.0707485
0.131167
0.058475
0.198075
0.0208224
0.041738
0.362514
0.531043
0.324243
0.420818
0.232073
0.0903867
0.111739
0.14379
0.377835
0.105348
0.34873
0.399667
0.218585
0.190891
0.212723
0.14752
0.182468
0.288661
0.501247
0.421203
0.0881002
0.281313
0.451274
0.289139
0.0560126
0.00392214
0.0187198
0.00351524
0.00335728
0.00240911
0.0381102
0.00228535
0.0257934
0.0354107
0.0416008
0.040241
0.00340993
0.00179476
0.00311184
0.00456651
0.0131765
0.0123027
0.996379
1.32877
1.24655
1.31027
1.55694
1.15549
2.26534
0.209888
2.05341
0.814783
0.315744
0.0536748
0.298585
0.45709
1.23101
0.210787
1.3392
0.829749
0.2356
0.365541
0.0519183
0.27713
0.00284463
0.00310417
0.00155647
0.00185163
0.0028264
0.00278701
0.00284602
0.00266853
0.00281067
0.00309363
0.00271814
0.00270653
0.00253187
0.00255714
0.00259643
0.00232743
0.00259631
0.00278299
0.00268848
0.00254446
0.00791022
0.024857
0.0771825
0.00433907
0.00150365
0.00310898
0.0827748
0.00065129
0.017951
0.00367992
0.00375517
0.0254296
0.00362219
0.00366927
0.0247521
2.56334
3.43894
2.70404
3.63669
3.41017
3.26651
3.80168
2.00249
0.0113528
0.00738219
0.0226271
0.0193111
0.0199405
0.00530538
0.00967041
0.00600241
0.0193637
0.014904
0.00589393
0.0143804
0.081103
0.118056
0.973099
0.364529
0.0881053
0.160613
0.897246
0.674613
0.881317
0.931858
1.3192
0.682101
1.08784
1.7189
0.522067
0.202255
0.206307
0.285245
0.00237663
0.00521914
0.00604854
0.00741826
0.0068901
0.00227662
0.00303436
0.00568487
0.00504769
0.00644818
0.00933603
0.00454216
0.00375871
0.000898272
0.00410084
0.00843457
0.0101442
0.00506227
0.0439096
0.0448636
0.0680941
0.0703299
0.060233
0.0652968
0.0346524
0.0430995
0.0509344
0.0785275
0.0700732
0.0464882
0.0988042
0.0481982
0.0700142
0.0720516
0.0656764
0.0427824
0.0418397
0.0684685
0.0720673
0.0383557
0.0145511
0.0131876
0.015097
0.0177359
0.013915
0.0167931
0.014671
0.0130784
0.0156652
0.0174733
0.0172526
0.0157969
0.0155465
0.0144159
0.0157442
0.0140282
4.00305
3.42687
3.14589
4.11711
3.28406
3.26448
2.49382
1.73506
1.0737
1.06012
1.13088
1.15434
2.637
1.21573
1.59222
1.3847
1.88926
2.19666
0.0594838
0.124167
0.110643
0.0535518
0.0353454
0.0216358
0.0538083
0.0643451
0.0874145
0.0678162
0.0393341
0.0292829
0.0247102
0.0292896
0.0553605
0.0385714
0.0080158
0.00446644
0.00278429
0.00277607
0.00402049
0.00296209
0.0029902
0.00300385
0.00215184
0.00200134
0.0117206
0.00862458
0.01615
0.000478912
0.00261687
0.00213736
0.00243649
0.00264596
0.00638064
0.012677
0.445408
0.437456
0.359474
0.204486
0.0476879
0.214777
0.0184979
0.159456
0.210924
0.33337
0.0541389
0.0488058
0.115411
0.14299
0.0664238
0.0761466
0.0456353
0.0226559
0.0197725
0.0348192
0.0506976
0.0581218
0.0159346
0.0516761
0.0190708
0.0171578
0.0144064
0.0239782
0.235289
0.158444
0.0876019
0.194331
0.297376
0.0551726
0.0374939
0.169545
0.189989
0.166825
0.0419959
0.0292143
0.0915188
0.114394
0.0714096
0.0475522
0.0759613
0.0382275
0.0347678
0.00412375
0.0398749
0.038581
0.0440541
0.0429105
0.0280228
0.0338892
0.0161105
0.0140381
0.0193668
0.0121663
0.0474776
0.0464994
0.0245805
0.0393908
0.0361674
0.0339993
0.053439
0.0208043
0.00903028
0.0754121
0.0630507
0.0326159
0.0289233
0.0473468
5.05411e-05
0.00136585
0.00560224
0.000294848
0.00365425
0.00158944
0.000275903
0.000680003
0.0148943
0.034891
0.0287088
0.00621246
0.00590641
0.0126439
0.00907615
0.0117378
0.0077663
0.00851398
0.00325997
0.00493559
0.000591383
0.00930228
0.00907798
0.00498771
0.00466593
0.00499054
0.0050121
0.00460284
0.00476462
0.00505804
0.0048647
0.0048629
0.00482702
0.00496143
0.00473041
0.00458031
0.00478306
0.0120707
0.0124054
0.0167161
0.0162471
0.0171408
0.0172744
0.0119658
0.010677
0.0142594
0.0151544
0.0123717
0.015334
0.0132159
0.0138119
0.0455206
0.0542497
0.057846
0.0604524
0.115688
0.114515
0.129516
0.140917
0.052784
0.0903541
0.0828081
0.0863003
0.118004
0.084413
0.0728945
0.378975
0.455306
0.0412979
0.0528226
0.139191
0.388968
0.484743
0.00364708
0.055057
0.0283995
0.0609287
0.137144
0.0356449
0.0557899
0.026214
0.00809663
0.0399084
0.619481
0.659223
0.537551
0.5081
0.45764
0.461865
0.517646
0.623392
0.442574
0.429845
0.524395
0.49938
0.538859
0.448307
0.407732
0.48589
0.524612
0.525771
0.584506
0.549002
0.549161
0.53187
0.403486
0.410282
0.520371
0.555865
0.571838
0.88902
0.297068
0.364671
0.370754
0.549094
0.24205
0.250079
0.78449
0.646034
0.531466
0.109583
0.169421
0.0822309
0.0642752
0.219392
0.202547
0.207013
0.148475
0.21745
0.0594201
0.154342
0.0675701
0.206215
0.245811
0.150807
0.185757
0.372404
0.376741
0.176963
0.269247
0.373858
0.423252
0.413381
0.330536
0.287908
0.279837
0.284375
0.309321
0.138098
0.190709
0.350843
0.211936
0.201281
0.222837
0.00356312
0.00373824
0.00392084
0.00358227
0.00334329
0.00369539
0.00333327
0.0033762
0.00359566
0.00338543
0.00334975
0.00333721
0.00336694
0.00340045
0.00336015
0.0033531
0.00335179
0.00335632
0.00331088
0.00336381
0.00548902
0.0119726
0.00449091
0.00562563
0.0259124
0.0101714
0.00540304
0.0179106
0.00704874
0.00557951
0.00387663
0.0331195
0.0066262
0.00610331
0.00603248
0.00602737
0.00667531
0.00623311
0.00689487
0.00693634
0.00642988
0.00621249
0.00612627
0.00621868
0.00601055
0.00693805
0.00672116
0.0444709
0.0548345
0.049157
0.0502411
0.24035
0.204461
0.167762
0.173981
0.220729
0.0631671
0.0925994
0.0345369
0.0400295
0.146638
0.108842
0.0864837
0.0808632
0.0769768
0.115872
0.0933043
0.0731086
0.185667
0.173826
0.391129
0.300604
0.173626
0.252014