/*--------------------------------*- C++ -*----------------------------------*\
  =========                 |
  \\      /  F ield         | OpenFOAM: The Open Source CFD Toolbox
   \\    /   O peration     | Website:  https://openfoam.org
    \\  /    A nd           | Version:  10
     \\/     M anipulation  |
\*---------------------------------------------------------------------------*/
FoamFile
{
    format      ascii;
    class       volScalarField;
    location    "19";
    object      nut;
}
// * * * * * * * * * * * * * * * * * * * * * * * * * * * * * * * * * * * * * //

dimensions      [0 2 -1 0 0 0 0];

internalField   nonuniform List<scalar> 
75457
(
0.058693
0.0659043
0.0526781
0.0215243
0.0605866
0.0246679
0.0624811
0.0192765
0.0293578
0.0292283
0.0281278
0.0445176
0.0575697
0.0203408
0.0368878
0.0301108
0.00815566
0.0213936
0.0265894
0.00539148
0.0132561
0.00903389
0.0343256
0.0352937
0.0219111
0.0399447
0.040585
0.0510975
0.0436244
0.0667416
0.0463026
0.0579059
0.0564507
0.0301435
0.0265123
0.0339791
0.0309437
0.055821
0.0525565
0.0316418
0.0321429
0.0298385
0.0316921
0.0262591
0.0403288
0.0113835
0.00653394
0.0218401
0.0976433
0.0555901
0.0790339
0.0946737
0.0909843
0.0811573
0.0587553
0.0606753
0.124135
0.107573
0.101061
0.015355
0.0905408
0.101412
0.0518247
0.0443217
0.00796898
0.0410963
0.0130522
0.0452373
0.0569438
0.0116197
0.0565365
0.0126895
0.0466993
0.00376403
0.0560841
0.0181226
0.0180076
0.167525
0.173251
0.209911
0.111553
0.121961
0.191494
0.253188
0.164894
0.215989
0.216769
0.13225
0.178711
0.104472
0.248189
0.257048
0.133058
0.201392
0.160786
0.0987607
0.0983375
0.101527
0.0141784
0.123139
0.0955501
0.113191
0.00514492
0.00136294
0.00101364
0.00135644
0.0089735
0.00217305
0.0101641
0.0427167
0.0665305
0.00812485
0.00790527
0.0519337
0.0133988
0.0846792
0.0116769
0.0495562
0.0520787
0.0137048
0.00310863
0.0106742
0.0114861
0.0289462
0.0590432
0.0357385
0.00737726
0.0682455
0.0740179
0.0129626
0.0247432
0.130707
0.0419865
0.0968129
0.155753
0.0567384
0.0513009
0.136293
0.124555
0.00991655
0.0304199
0.0491323
0.0692812
0.0347792
0.0412654
0.109102
0.0828788
0.0637338
0.0683964
0.138201
0.0110426
0.118078
0.0549636
0.0476561
0.0681126
0.072119
0.150697
0.0076557
0.077628
0.12476
0.00761645
0.0580498
0.123432
0.000864568
0.000869512
0.000861254
0.000878669
0.000872282
0.000868671
0.000865017
0.000855766
0.000883307
0.000849162
0.000866905
0.000869009
0.000868373
0.0789109
0.0921106
0.11591
0.0968226
0.206678
0.00741846
0.180942
0.0752712
0.00872181
0.102054
0.190683
0.0891869
0.0757732
0.0173609
0.120895
0.0753556
0.097241
0.0712011
0.0694756
0.0136553
0.0266549
0.0539682
0.0466975
0.0320037
0.0236433
0.0764708
0.0827274
0.00802298
0.075908
0.0725961
0.0692958
0.130236
0.117558
0.1173
0.107377
0.105026
0.0128546
0.0133419
0.111647
0.093644
0.0145348
0.10394
0.0146541
0.015396
0.0636169
0.106847
0.0771898
0.00981332
0.0830878
0.0835153
0.0138771
0.0673886
0.106031
0.00722338
0.0460676
0.0447123
0.0633715
0.0785642
0.0913618
0.105874
0.121726
0.0898362
0.0910794
0.0923978
0.089709
0.114029
0.00936031
0.125481
0.073958
0.0941676
0.104323
0.119579
0.104516
0.0124217
0.103307
0.00965394
0.0713849
0.0105833
0.090001
0.00749666
0.0655243
0.0293046
0.0423171
0.00893837
0.0316125
0.0345678
0.0913442
0.0578251
0.092099
0.0175305
0.0937543
0.0156307
0.0158404
0.0698647
0.0120124
0.0785362
0.140848
0.142157
0.0888963
0.129959
0.0931825
0.0775064
0.0110406
0.0833474
0.111387
0.00946587
0.0994738
0.00854118
0.103326
0.00781026
0.100547
0.0657947
0.0748371
0.0904267
0.0810426
0.0858526
0.138471
0.0100048
0.0646919
0.0125152
0.0673178
0.10456
0.105343
0.010556
0.106026
0.0403355
0.0198746
0.103026
0.0671408
0.212571
0.0129862
0.13289
0.211814
0.0149264
0.320688
0.129875
0.079218
0.0952166
0.0716049
0.0878226
0.061912
0.112287
0.0789898
0.00470032
0.0675074
0.0875901
0.1112
0.0272309
0.00673135
0.112378
0.095418
0.089091
0.122422
0.0855766
0.0551042
0.0591303
0.0989722
0.00841078
0.0950678
0.0960766
0.135189
0.140713
0.0124617
0.110085
0.128187
0.011402
0.132182
0.132244
0.0452261
0.0831395
0.0887917
0.152901
0.0358759
0.208114
0.156376
0.0319746
0.130636
0.13004
0.111952
0.146737
0.123847
0.0199568
0.105288
0.137128
0.0182902
0.0139982
0.0196206
0.0134991
0.086594
0.0889191
0.083591
0.0931552
0.094671
0.0897142
0.101373
0.0966749
0.0965942
0.103962
0.0138098
0.0878553
0.0880608
0.124223
0.008861
0.109946
0.102663
0.0748713
0.0125218
0.0198608
0.0683738
0.286113
0.101745
0.123407
0.0691265
0.0691446
0.0935319
0.000889504
0.00091461
0.000847769
0.000847555
0.000924833
0.000964435
0.000880258
0.000933566
0.000907239
0.00114048
0.000837087
0.000838772
0.000813342
0.000820212
0.000847144
0.00083903
0.000827073
0.000837922
0.000897805
0.000902735
0.000857337
0.00081642
0.000793907
0.000801889
0.000869273
0.000858026
0.000856619
0.000799036
0.000788892
0.000827008
0.000838509
0.000911139
0.000904759
0.000850728
0.000847988
0.000885532
0.000869602
0.00085369
0.000853376
0.000912703
0.000902201
0.000876173
0.000896641
0.000869911
0.000861506
0.00085861
0.000856155
0.000893777
0.00091471
0.000863867
0.000885022
0.00088959
0.000873361
0.0523402
0.0248219
0.0259517
0.023836
0.0251523
0.0453167
0.0225501
0.0274883
0.0194649
0.0492786
0.0193222
0.0192126
0.0201395
0.0218095
0.0170308
0.0473768
0.0449325
0.0397494
0.0517666
0.0243344
0.0317357
0.0329257
0.0588991
0.0247157
0.0315715
0.0303356
0.0445968
0.0362104
0.0521566
0.0307594
0.0274056
0.0103359
0.00360049
0.00529564
0.0206425
0.0194592
0.0127468
0.00499837
0.00488995
0.00496802
0.00613536
0.00377508
0.0121449
0.019124
0.0188346
0.022583
0.0530598
0.0241826
0.015395
0.0150302
0.000877964
0.000880441
0.00088454
0.000886927
0.000876995
0.000916575
0.000916177
0.0008341
0.000866213
0.000908465
0.000902289
0.00094939
0.00091295
0.000867361
0.00086209
0.000866441
0.000842607
0.000839084
0.000840938
0.00084488
0.000845245
0.000835824
0.00085289
0.000847218
0.000846157
0.000847144
0.00085955
0.000847293
0.000850826
0.000849104
0.000854877
0.000862926
0.000853731
0.000952955
0.000982337
0.00097224
0.00101085
0.00101051
0.000991425
0.000751111
0.00144578
0.000932625
0.00100423
0.000859358
0.000983382
0.000956216
0.00098507
0.000925321
0.000962063
0.000772345
0.102009
0.0924975
0.0946672
0.0964032
0.0988158
0.115436
0.135967
0.134421
0.105076
0.109149
0.0946762
0.100583
0.145871
0.104666
0.144245
0.098157
0.114515
0.119662
0.0242297
0.0244347
0.0283012
0.0350205
0.0148654
0.0391219
0.0268426
0.0270523
0.028118
0.0446909
0.0299642
0.0298465
0.029119
0.0184807
0.053074
0.0494606
0.0571853
0.0373304
0.0587066
0.0588178
0.0655662
0.0516024
0.0457813
0.0619156
0.0631125
0.065269
0.0524243
0.03274
0.0351883
0.0641488
0.0414983
0.0555002
0.000915198
0.00091888
0.000922733
0.000994347
0.00103857
0.000913783
0.000898596
0.000972044
0.000937674
0.00095369
0.000851888
0.00101714
0.0780896
0.0563238
0.0995894
0.0467953
0.087443
0.0744673
0.0725019
0.0768988
0.0929353
0.0311581
0.0234118
0.0258321
0.0275622
0.0221495
0.0257868
0.0255158
0.00799575
0.0302191
0.00567874
0.028202
0.0498671
0.0458656
0.0501893
0.0445623
0.0375324
0.0291971
0.0216043
0.0121804
0.0394968
0.018686
0.0211221
0.0260371
0.00152026
0.000420852
0.0112607
0.00217647
0.000443636
0.0154429
0.0117354
0.0038072
4.0633e-05
0.000808614
0.000196582
0.000573353
0.000835633
0.000751736
0.000209942
0.0153952
0.0139884
0.0137215
0.00459649
0.055912
0.0456497
0.0333794
0.0701858
0.043997
0.0584996
0.0461344
0.027407
0.0423285
0.0271577
0.0643904
0.0543348
0.0477117
0.0480808
0.107968
0.120582
0.0964314
0.103585
0.104061
0.102857
0.078672
0.0955767
0.117204
0.0803132
0.0817861
0.119845
0.0885447
0.0804813
0.0875059
0.0844167
0.0828073
0.0848166
0.0400258
0.06985
0.0774471
0.00586997
0.0222615
0.0614461
0.0362655
0.0110134
0.0197274
0.0824285
0.0675496
0.229793
0.232842
0.214706
0.139168
0.186487
0.207055
0.217759
0.179413
0.212738
0.2021
0.200824
0.173435
0.1673
0.199758
0.162002
0.177204
0.191422
0.200997
0.186699
0.146338
0.18633
0.0134609
0.00993999
0.0293623
0.0222118
0.0249364
0.0117256
0.0194688
0.0195758
0.0194742
0.0473579
0.0550756
0.0631214
0.0104516
0.0552891
0.0739816
0.0457038
0.0615417
0.00914565
0.0437369
0.0523787
0.0357874
0.0443357
0.048111
0.0707441
0.0460983
0.0310741
0.0603572
0.0454431
0.26485
0.288106
0.227759
0.249296
0.240381
0.237001
0.223231
0.205544
0.199457
0.234322
0.204081
0.218898
0.206971
0.0252295
0.0297733
0.00922608
0.0113666
0.0101812
0.00918356
0.0147122
0.0178244
0.0461043
0.0202539
0.0321558
0.0344239
0.0105198
0.0110245
0.0330557
0.0195821
0.0335178
0.0327698
0.0249005
0.0392781
0.0458944
0.0213762
0.0273986
0.010223
0.0390603
0.0137377
0.0107867
0.0427635
0.0426229
0.00844111
0.0308055
0.0344496
0.0285897
0.0268816
0.0429259
0.0130151
0.0222218
0.0576817
0.0387803
0.0185412
0.00259569
0.0061938
0.0417715
0.057548
0.0371567
0.0366302
0.0450502
0.054622
0.0352269
0.0452838
0.0410786
0.0266147
0.026267
0.0419542
0.0452516
0.0540868
0.0277743
0.0289857
0.0388127
0.054664
0.0459633
0.0343684
0.0441854
0.038008
0.102471
0.0759425
0.0174462
0.0328806
0.0440711
0.0437228
0.0333653
0.036665
0.0525535
0.104651
0.119922
0.105108
0.0463723
0.061087
0.0342271
0.0956952
0.077452
0.0109278
0.0110869
0.00945744
0.0101743
0.0111604
0.0092614
0.00805024
0.00898763
0.00834707
0.0104001
0.0111286
0.00752494
0.0106842
0.0109512
0.000861341
0.000794825
0.000808064
0.000869842
0.00084288
0.000814412
0.000831126
0.000848909
0.000898995
0.000901441
0.0411003
0.0314151
0.0436707
0.0532651
0.0223195
0.0193004
0.0504668
0.0606947
0.0257379
0.0431297
0.0445261
0.0442515
0.0472939
0.0189642
0.0472319
0.044215
0.0134959
0.109028
0.112791
0.108288
0.170156
0.16207
0.135219
0.158841
0.155652
0.165883
0.179177
0.100869
0.103022
0.122682
0.114962
0.144713
0.164507
0.155443
0.112029
0.118637
0.125681
0.000517291
0.000766923
0.000764754
0.000461161
0.000957528
0.00549494
0.00582633
0.00109179
0.000762701
0.000709226
0.0056497
0.00702686
0.000411254
0.00363784
0.0046775
0.00778733
0.209921
0.288863
0.365401
0.314362
0.154174
0.23927
0.144749
0.199365
0.275866
0.273929
0.162244
0.187333
0.218855
0.0322635
0.0416398
0.0424715
0.0299743
0.0262623
0.0277331
0.0391152
0.0343924
0.0291776
0.0307241
0.0192068
0.0288633
0.0108346
0.0274767
0.0237554
0.0140799
0.0290705
0.0267701
0.0131664
0.0120308
0.0118011
0.01423
0.00021797
0.000784712
0.000666173
0.000430037
0.000341359
0.00673337
0.0261763
0.00101722
0.0096657
0.0626178
0.0708383
0.0395008
0.0367554
0.042493
0.0154802
0.0443903
0.0509677
0.0423477
0.0189494
0.0185448
0.0406543
0.00958052
0.0234907
0.0198078
0.0173539
0.0177009
0.0250638
0.016901
0.20204
0.128415
0.218414
0.216563
0.177916
0.186888
0.137285
0.229083
0.197949
0.222816
0.231089
0.239712
0.221371
0.205702
0.222669
0.185601
0.0159157
0.0336678
0.0291043
0.0171045
0.00248503
0.00424545
0.00602097
0.00266472
0.00244368
0.00226664
0.0190188
0.0131167
0.00412293
0.00012835
0.00641493
0.00491282
0.0222864
0.146857
0.0826303
0.129322
0.0251157
0.138557
0.0852459
0.0633325
0.0773551
0.0776473
0.0831082
0.107649
0.166324
0.17581
0.0899918
0.0965577
0.0982801
0.0974921
0.0849549
0.175308
0.00199625
0.00121264
0.00100687
0.000919484
0.00115752
0.000812307
0.000847811
0.00090738
0.000959427
0.00202694
0.00224574
0.00125311
0.00116372
0.000845541
0.00219032
0.0128442
0.0141031
0.0238232
0.032431
0.0404485
0.03822
0.0424126
0.0203814
0.0556469
0.0698526
0.0649734
0.0349356
0.074103
0.0718448
0.00653705
0.0106343
0.00508711
0.00603271
0.00543544
0.0081459
0.00329651
0.00208563
0.00822687
0.00216347
0.00428977
0.00205555
0.00317746
0.00206184
0.00166593
0.00178745
0.0312405
0.0332482
0.0275446
0.0274764
0.062165
0.062724
0.0196741
0.0425059
0.0405045
0.0236839
0.0630749
0.0535488
0.0651933
0.0513443
0.0548135
0.0636101
0.0670107
0.0652034
0.0636982
0.0042799
0.0167753
0.00955589
0.00830761
0.00476116
0.0309489
0.0112735
0.0153494
0.0189018
0.0144025
0.00472391
0.0055452
0.00807389
0.00587992
0.0207743
0.017305
0.0170769
0.0349238
0.026258
0.030583
0.0150693
0.0211501
0.0372762
0.0256344
0.0230153
0.00192944
0.00165623
0.00146516
0.00960508
0.000534657
0.000859032
0.00345626
0.00303225
0.00168324
0.00147236
0.00343361
0.00389623
0.00162776
0.00312322
0.00112624
0.000878
0.000911324
0.00103116
0.00418082
0.00108798
0.00739551
0.00672128
0.00543907
0.0103331
0.00800704
0.0078342
0.0205552
0.00757395
0.0204658
0.023472
0.0184493
0.0130157
0.110353
0.163226
0.013806
0.164539
0.0693762
0.101463
0.0704724
0.00990117
0.0115715
0.0923266
0.0821447
0.0781565
0.0131773
0.0961153
0.0969852
0.0771486
0.0978079
0.0868093
0.0880825
0.092347
0.0931761
0.0909868
0.0873006
0.0916226
0.0922131
0.101261
0.015259
0.0924481
0.0175181
0.0919954
0.0907496
0.0908444
0.0856812
0.089777
0.112653
0.104439
0.11054
0.0214836
0.0375006
0.0132896
0.0209747
0.0120795
0.0119362
0.00937381
0.0134203
0.0114169
0.0111673
0.0175773
0.00886872
0.00996359
0.0104854
0.0102109
0.00776492
0.204299
0.163642
0.135994
0.131009
0.0693876
0.0683303
0.195466
0.0866835
0.0716768
0.113256
0.0958667
0.124168
0.0537782
0.102471
0.0169345
0.101394
0.0142019
0.0647283
0.0252234
0.0976303
0.0232031
0.116471
0.07627
0.0848287
0.0949553
0.0726442
0.115245
0.0144873
0.106512
0.0455579
0.0794951
0.0857498
0.0159239
0.0810367
0.112477
0.103726
0.107453
0.0924582
0.0717463
0.152664
0.00998323
0.054197
0.0677045
0.0142346
0.0670384
0.0854155
0.0504819
0.120781
0.0153547
0.133307
0.0675897
0.0985658
0.0131663
0.0822011
0.0574521
0.100191
0.0593433
0.0944338
0.0149031
0.0956709
0.0623661
0.0667993
0.0844491
0.0895917
0.0692633
0.0671162
0.075564
0.0695189
0.0415909
0.0557887
0.0489556
0.0715874
0.0726521
0.0303872
0.0346655
0.0362049
0.0625571
0.076301
0.0480882
0.0544635
0.0350227
0.0659493
0.068162
0.0192829
0.0214635
0.010891
0.00909523
0.0105647
0.0118984
0.0259115
0.0247001
0.0123614
0.0158181
0.0122419
0.0695878
0.0829029
0.0536896
0.000912267
0.000903375
0.00091542
0.00096292
0.000909958
0.000883858
0.00326862
0.00362178
0.00550423
0.00291355
0.000130084
0.000998285
0.00138625
0.000814409
0.00253591
0.00236701
0.00718142
0.00245367
0.000566386
0.000683535
0.0393918
0.0581597
0.0537997
0.0443351
0.0278961
0.0356102
0.0225909
0.0100534
0.0511158
0.0666257
0.053234
0.0208814
0.0233868
0.0112071
0.0329453
0.0309426
0.0332134
0.0387233
0.0337245
0.00538934
0.00302411
0.004574
0.00377693
0.0465671
0.0557404
0.0229205
0.0304054
0.0118572
0.00377177
0.0329727
0.0102981
0.00620646
0.0296851
0.0482332
0.0289522
0.0204737
0.0284632
0.021297
0.028957
0.0578497
0.0533934
0.0817645
0.0574824
0.0815647
0.0897198
0.0890635
0.103466
0.0971324
0.106411
0.0887088
0.0790651
0.101552
0.0886236
0.0974846
0.0889099
0.0701457
0.08199
0.0874682
0.220909
0.192712
0.169299
0.274042
0.153103
0.098018
0.166177
0.148895
0.189404
0.12442
0.124403
0.151151
0.153888
0.154978
0.242527
0.171785
0.000961131
0.000974068
0.00102925
0.00114862
0.000998186
0.00097915
0.00166038
0.000964421
0.00109366
0.000757629
0.000973343
0.000948205
0.00101746
0.00104125
0.00110086
0.00110478
0.00107255
0.00101003
0.000998624
0.00103557
0.0918027
0.105252
0.0769888
0.100374
0.0737613
0.0786495
0.0437722
0.0620067
0.0940248
0.0807708
0.0108001
0.101441
0.0521086
0.0525602
0.0819962
0.0762965
0.010753
0.083752
0.0133669
0.0741591
0.000715863
0.00118828
0.00132962
0.000983318
0.000885757
0.000944444
0.00101642
0.000990201
0.0010407
0.000994274
0.000939907
0.0010684
0.00105234
0.000770981
0.00106378
0.000945406
0.00141984
0.157022
0.0905385
0.142514
0.0129753
0.0916936
0.109936
0.095315
0.112575
0.0194971
0.109325
0.247729
0.0754014
0.000989402
0.000905539
0.000594001
0.000283638
0.000873201
0.00071958
0.000704281
0.000490739
0.000354489
0.000899773
0.000702749
0.000367942
0.00444273
1.95589e-05
0.00169832
8.09679e-05
0.00241774
0.00811766
7.20069e-05
0.00502957
0.00712782
0.0282859
0.0260616
0.00126251
0.0020737
0.0391969
0.0301277
0.0416241
0.00161925
0.00386288
0.00623687
0.00140123
0.00311776
0.00373215
0.00144317
0.0122095
0.00371036
0.00538491
0.00179769
0.0109025
0.0286139
0.00948192
0.0132328
0.0187604
0.0571149
0.00285892
0.00282602
0.0434369
0.0679419
0.00720772
0.00476762
0.0190797
0.0409758
0.0125503
0.0241756
0.0296172
0.0311184
0.0172239
0.0134449
0.0330397
0.0277995
0.0241135
0.0128622
0.00406538
0.0220009
0.0109177
0.0101861
0.00345414
0.00437024
0.00680656
0.00858703
0.0152107
0.000631174
0.00128312
0.000818473
0.000838423
0.0201094
0.0190107
0.0027663
0.000344914
0.00151897
0.0109268
0.0204313
0.020636
0.00159733
0.000461484
0.000712838
0.0188375
0.0108139
0.0630984
0.0515351
0.0177245
0.0573041
0.0451619
0.0333167
0.0163498
0.000315879
0.00018805
0.0020871
0.00740556
0.000653579
0.00096018
0.000971019
0.000441345
0.00148572
0.00096124
0.000933755
0.000978659
0.00097578
0.000569553
0.000557171
0.000890838
0.0009119
0.0010363
0.000778437
0.000743338
0.00103881
0.000832061
0.0156254
0.0123602
0.0120009
0.0212666
0.0129824
0.0401199
0.0533015
0.0179321
0.0216901
0.0272198
0.0251385
0.0341301
0.0265422
0.0223669
0.128018
0.0982528
0.0280299
0.17701
0.0603202
0.0571191
0.0407169
0.0145363
0.0189001
0.0555287
0.0529328
0.0292586
0.0287197
0.0294684
0.0170235
0.0211169
0.0313885
0.020592
0.0182886
0.02543
0.0156728
0.0101281
0.0263352
0.03692
0.0266807
0.0262017
0.0951689
0.110253
0.119995
0.106887
0.0947661
0.112026
0.116209
0.117531
0.094402
0.114295
0.106716
0.108759
0.117337
0.125599
0.122974
0.122341
0.0905769
0.0844803
0.0867684
0.091791
0.104622
0.09724
0.106135
0.130401
0.0942646
0.132625
0.0142244
0.0914855
0.0888508
0.0930559
0.103503
0.107107
0.0905953
0.112225
0.0197753
0.0882487
0.101162
0.0214254
0.103221
0.0204632
0.0963879
0.0931473
0.0855211
0.0789043
0.0181266
0.102976
0.0926708
0.0646524
0.0773557
0.106386
0.069373
0.0969378
0.0938662
0.0658112
0.0643668
0.0580867
0.0996832
0.176813
0.157927
0.16897
0.108681
0.132628
0.128402
0.101336
0.146165
0.147928
0.120723
0.151571
0.14696
0.114098
0.130277
0.0243246
0.124115
0.110244
0.112193
0.02098
0.100613
0.121119
0.113054
0.114251
0.0472263
0.0522121
0.0565602
0.0872358
0.0781819
0.131561
0.0938527
0.0862781
0.0508336
0.0699381
0.0990137
0.0703622
0.0106868
0.00991658
0.0679684
0.0719074
0.0735966
0.0136574
0.107254
0.0785121
0.0868108
0.121223
0.108335
0.0114149
0.0761751
0.0717073
0.0634449
0.0985778
0.0965794
0.0728016
0.0140014
0.0904462
0.0983255
0.0901901
0.0634879
0.106892
0.124864
0.0644082
0.0635629
0.103659
0.0913352
0.0805467
0.0113107
0.118374
0.0830373
0.0683773
0.0678438
0.0850443
0.0712526
0.152306
0.111079
0.194586
0.163584
0.108259
0.153537
0.171208
0.136932
0.149934
0.171733
0.122924
0.123514
0.195042
0.150229
0.12256
0.168016
0.174796
0.0367892
0.0417737
0.0436085
0.0436687
0.0434864
0.0464241
0.0413687
0.050039
0.0367184
0.0363043
0.0387708
0.0476387
0.0386267
0.0448874
0.0424582
0.0443289
0.041134
0.0406636
0.0412877
0.0493144
0.0452325
0.042839
0.0489385
0.0431156
0.0348778
0.0387493
0.0486763
0.0258442
0.0181451
0.0384739
0.0241032
0.0119222
0.00867903
0.0154529
0.013998
0.00922715
0.0156217
0.0152754
0.011821
0.0152984
0.257474
0.207637
0.186887
0.192384
0.181649
0.192114
0.294543
0.192029
0.197722
0.278217
0.187453
0.188464
0.204621
0.200955
0.266167
0.209949
0.278828
0.0311393
0.00606951
0.0344784
0.0883211
0.0859122
0.00781438
0.0239145
0.0215253
0.00339882
0.0565512
0.0789403
0.093828
0.0559889
0.0545901
0.0880455
0.101237
0.035717
0.0350094
0.0392299
0.0387841
0.0494332
0.0464348
0.0426568
0.0957837
0.0991321
0.0456472
0.0385472
0.0570096
0.0852845
0.0937687
0.0852272
0.0967138
0.0873472
0.0965688
0.0813005
0.0148211
0.0972322
0.0136141
0.0725011
0.0852728
0.0687461
0.0178839
0.0157246
0.0188533
0.0155329
0.0144166
0.0180401
0.0149621
0.0148953
0.0189466
0.0225979
0.0192616
0.018018
0.0156109
0.0181406
0.0407057
0.051695
0.0354297
0.0381458
0.0590496
0.0352472
0.0375102
0.0559086
0.0772736
0.0651603
0.0862847
0.0440917
0.0490563
0.0635951
0.0314855
0.078489
0.0809877
0.0272379
0.0417391
0.229359
0.0542801
0.27788
0.351187
0.0793986
0.130162
0.162309
0.311773
0.27606
0.236657
0.173479
0.316952
0.280655
0.243867
0.0014444
0.00169426
0.000972138
0.00119026
0.00128338
0.00111235
0.00119077
0.00113285
0.000940389
0.000894246
0.0933154
0.0119476
0.0873183
0.0147001
0.0548828
0.0502038
0.0415911
0.0611732
0.0742436
0.0743549
0.086756
0.0933955
0.087879
0.0476311
0.0504707
0.0248148
0.0744767
0.0863535
0.0469977
0.0500688
0.0435482
0.0466304
0.15474
0.0771207
0.139053
0.0995873
0.133963
0.0330066
0.0835116
0.22185
0.173114
0.0360061
0.091446
0.0364665
0.0778844
0.231623
0.214924
0.0788186
0.063035
0.192797
0.000870877
0.000870808
0.000873425
0.000873529
0.000872813
0.000869217
0.000873574
0.000871071
0.00086671
0.000865704
0.000876301
0.00087104
0.000867987
0.000869219
0.000878358
0.000887166
0.000872461
0.000877608
0.000867268
0.12382
0.114055
0.0821358
0.102246
0.0628202
0.0565897
0.0875418
0.101009
0.0625276
0.104143
0.0815064
0.110809
0.110253
0.0642892
0.110615
0.0999348
0.11068
0.0448079
0.000947874
0.000964812
0.000971589
0.000934702
0.00095359
0.000971178
0.000977114
0.000977757
0.00096586
0.0010287
0.000994225
0.00098197
0.000994964
0.0010098
0.00102787
0.00102214
0.000858236
0.000843903
0.00084245
0.000865904
0.000880489
0.000858796
0.00085198
0.000857762
0.000826846
0.00082628
0.000874124
0.000833075
0.000873989
0.000844484
0.000879815
0.000853167
0.00085394
0.000853014
0.000876621
0.000860542
0.000852135
0.00088913
0.000869322
0.00086586
0.000845042
0.000897884
0.000899824
0.000864254
0.000884878
0.000970041
0.000855808
0.000931312
0.000864084
0.000473144
0.000856041
0.000893134
0.000871204
0.000870225
0.000921469
0.00075664
0.000864506
0.000856019
0.000910659
0.000850467
0.000886649
0.00089022
0.000884975
0.000879725
0.000879358
0.00088079
0.000880821
0.000900802
0.000891926
0.000887054
0.000890055
0.000891493
0.000883793
0.000872977
0.000886754
0.000884885
0.000899691
0.000889103
0.000895831
0.000893512
0.0866578
0.0875855
0.0822689
0.0539141
0.0682933
0.0612257
0.0829824
0.0713808
0.0731044
0.0471758
0.0477024
0.072699
0.0667625
0.0715018
0.0780379
0.106403
0.0790086
0.0958638
0.0898928
0.0957213
0.105219
0.090185
0.0966123
0.0902176
0.108462
0.0964718
0.104662
0.091842
0.0476397
0.04828
0.0478344
0.0821077
0.094454
0.000908799
0.000909278
0.000896461
0.000946968
0.000913389
0.000909238
0.00086332
0.000886886
0.000887454
0.000879195
0.000882536
0.000895746
0.00089706
0.000892677
0.000877117
0.0805015
0.0653753
0.0614517
0.0584763
0.0962582
0.0555411
0.0778932
0.0965742
0.108267
0.000882179
0.000889087
0.000883083
0.000881961
0.000893552
0.000881879
0.000880868
0.000886968
0.000886599
0.000874053
0.000870775
0.000854004
0.000868523
0.000886248
0.000881522
0.000868497
0.000844736
0.00085395
0.000898191
0.000886624
0.000885055
0.000833591
0.000717718
0.00110468
0.000644813
0.000760904
0.00111149
0.00198865
0.000859678
0.000691242
0.000504177
0.000722085
0.000575352
0.000765382
0.000840043
0.000562483
0.000683017
0.000812143
0.000789938
0.00173803
0.000858641
0.00215547
0.000822052
0.000840799
0.000784996
0.000904272
0.000954831
0.000871122
0.000903568
0.000932974
0.000873746
0.000840073
0.000801721
0.000805434
0.000801698
0.000900299
0.00088828
0.000925311
0.000914599
0.000883067
0.000883383
0.000889762
0.00086533
0.000928032
0.000808842
0.000897057
0.000932489
0.000802287
0.00846643
0.0147752
0.0132009
0.0106692
0.00510565
0.0115169
0.000162418
0.00163164
0.0124075
0.00577891
0.015186
0.00930904
0.00803936
0.00120538
0.00214833
0.00631083
0.00224168
0.00323322
0.00104205
0.0020319
0.00227109
0.00280874
0.00202312
0.00665535
0.00217819
0.00329987
0.00186378
0.00183098
0.00169936
0.0018729
0.00246485
0.00175872
0.00199127
0.00502307
0.00236596
0.00295183
0.000126547
0.00230841
0.00313514
0.00283144
0.00272945
0.00241179
0.00265775
0.00230217
0.000884684
0.000883946
0.000960084
0.00088058
0.000878131
0.00105199
0.000896525
0.000897373
0.000878738
0.000891539
0.00105539
0.000891971
0.000852923
0.000848303
0.000859793
0.000857286
0.000816938
0.000855517
0.000861935
0.000861949
0.000850299
0.000821628
0.000868342
0.000835337
0.000859428
0.000858034
0.0693455
0.0520671
0.059573
0.0731059
0.0615768
0.0477895
0.0568087
0.060125
0.0616139
0.0785919
0.0838325
0.0750642
0.0780358
0.00993605
0.0052663
0.00597227
0.00556832
0.00517264
0.00995467
0.00320507
0.0117844
0.00520955
0.00480528
0.00521302
0.00356163
0.00297479
0.00283386
0.00475033
0.005738
0.00561039
0.0103092
0.00889476
0.0139859
0.00564434
0.00342487
0.0180753
0.0159102
0.0331096
0.0122349
0.0175303
0.0104323
0.00592741
0.0154868
0.00755149
0.00659967
0.00851211
0.00540589
0.00801091
0.00577819
0.0116274
0.0064103
0.00405284
0.00444792
0.0105109
0.00554803
0.00470442
0.00574888
0.0070739
0.222426
0.222412
0.193192
0.196728
0.242761
0.233609
0.231353
0.273657
0.263733
0.275267
0.304822
0.000837939
0.000828682
0.000836913
0.00083895
0.000833375
0.000836895
0.000836039
0.000832887
0.000833195
0.000832076
0.000836579
0.000838576
0.000833674
0.000412862
0.00158202
0.000681147
0.00558282
0.000635025
0.00117266
0.00053166
0.000651073
0.00116808
0.00137713
0.000968542
0.00109582
0.00109977
0.00101311
0.00171635
0.000922741
0.00109026
0.00102927
0.0015307
0.000930079
0.000894434
0.000963061
0.000732659
0.000775061
0.000652143
0.000444758
0.000986674
0.000694134
0.000678477
0.000920557
0.000673214
0.000781188
0.000785409
0.000842454
0.000845221
0.000796397
0.0007582
0.000838979
0.000826224
0.000857891
0.000840513
0.000854567
0.000842231
0.000864753
0.000855576
0.000836806
0.000830205
0.000842604
0.000847117
0.00093185
0.000852597
0.000862309
0.000927892
0.000924451
0.000939339
0.000914077
0.000913581
0.000933298
0.000942389
0.0009258
0.000935454
0.000930384
0.000917643
0.000935204
0.000913845
0.000132559
0.00105989
0.00105952
0.000547307
0.000788622
0.000905898
0.000875084
0.000979734
0.000928243
0.000907984
0.00091789
0.000667497
0.000320591
0.00090554
0.000961868
0.000715426
0.00104461
6.84988e-05
0.00154699
0.00187678
0.000623561
0.0040266
0.00565379
0.00378076
0.00350983
0.00733008
0.00646528
0.00517333
0.0092017
0.00989359
0.00756931
0.00935959
0.0115827
0.0071801
0.00738048
0.00897375
0.0100483
0.00744379
0.00953102
0.0684427
0.186829
0.0532988
0.082345
0.0645358
0.145344
0.0243833
0.0278093
0.147591
0.0246331
0.0819405
0.202977
0.0965779
0.0666196
0.0953049
0.0666355
0.017891
0.0673012
0.108606
0.0347333
0.134091
0.0844258
0.0441194
0.0198896
0.0630522
0.120095
0.125091
0.00465334
0.00862738
0.00894201
0.00692431
0.00444416
0.0829801
0.000593277
0.0650203
0.00747293
0.115007
0.0207467
0.100059
0.178678
0.136087
0.0847381
0.0914504
0.189952
0.0825599
0.133353
0.0447789
0.196438
0.171476
0.11795
0.138058
0.219453
0.199051
0.183592
0.191506
0.203596
0.184293
0.126
0.157202
0.132135
0.128559
0.149538
0.267313
0.234979
0.172233
0.00827401
0.012645
0.0172476
0.00962424
0.00729324
0.0102989
0.00452822
0.0125135
0.00414819
0.00947065
0.01912
0.017043
0.0153074
0.0123661
0.0134497
0.0105773
0.0140371
0.00725791
0.020645
0.0152529
0.0702364
0.0765958
0.0510718
0.0466197
0.0503031
0.0378115
0.0453424
0.0632871
0.0883883
0.0795325
0.0244383
0.064205
0.0872298
0.0643975
0.0108034
0.000977551
0.00383773
0.00074188
0.00090618
0.00063893
0.0082004
0.000659314
0.0056333
0.00703146
0.00772895
0.00781914
0.00096379
0.000525204
0.00087325
0.00126307
0.00322493
0.00304549
0.103645
0.133258
0.125558
0.140488
0.165405
0.120812
0.198647
0.0230638
0.205586
0.0761927
0.046373
0.00796972
0.0431695
0.0578205
0.120886
0.025465
0.130338
0.0822597
0.0339039
0.0451089
0.0100252
0.0393692
0.000782403
0.000855954
0.000431772
0.000518959
0.000791388
0.00079456
0.00079326
0.00073662
0.000782016
0.00086024
0.000767637
0.000774408
0.00072528
0.000709995
0.000725432
0.000659539
0.00073001
0.000788645
0.000780074
0.000728151
0.00138184
0.00419278
0.0109712
0.000933194
0.00026772
0.000654773
0.0115919
0.000127906
0.00327513
0.000825028
0.000829758
0.00467551
0.000774623
0.000811261
0.0050807
0.273635
0.395544
0.306724
0.405864
0.338817
0.410522
0.404214
0.211874
0.00374374
0.00234395
0.00725369
0.00613979
0.00642434
0.00171195
0.0030816
0.0018607
0.00632266
0.0048679
0.00186139
0.00466854
0.022688
0.0321457
0.0987637
0.0674065
0.0258631
0.0397153
0.096012
0.0969628
0.091931
0.0925191
0.0144694
0.0906709
0.0941877
0.018892
0.0727527
0.0452543
0.0463158
0.0583505
0.000793618
0.0017158
0.00201102
0.00245508
0.00223325
0.000749044
0.0010113
0.00179517
0.00163577
0.00209529
0.00298422
0.00142481
0.00123037
0.000295369
0.00133565
0.0026554
0.0031449
0.00163005
0.0232478
0.0237156
0.0332851
0.033614
0.0308296
0.0319579
0.0185067
0.0227755
0.0262395
0.036274
0.0347439
0.0240925
0.041761
0.0245482
0.0348085
0.0355346
0.0322382
0.0222587
0.0217016
0.0326284
0.0355306
0.020092
0.000919403
0.000912786
0.000925109
0.000937023
0.000917336
0.000929061
0.000922128
0.00091091
0.000919342
0.000927097
0.000933081
0.000926781
0.000926961
0.000921267
0.00092594
0.00091929
0.531269
0.513466
0.435201
0.527731
0.418648
0.551243
0.319633
0.295233
0.206014
0.196597
0.20085
0.209533
0.462221
0.235752
0.254562
0.204723
0.354616
0.344835
0.0262915
0.0462108
0.0416614
0.023513
0.0163402
0.010498
0.0221542
0.0257052
0.0364534
0.0297951
0.0179335
0.0132343
0.0116746
0.0141735
0.0249241
0.0181942
0.00205572
0.00115404
0.000705271
0.000713779
0.00107608
0.000760818
0.000771687
0.000772562
0.000550163
0.000513323
0.0030346
0.00220286
0.00413846
0.000123563
0.000684023
0.000559631
0.000643393
0.000699173
0.0017097
0.00338778
0.0505177
0.050772
0.0471554
0.0309884
0.00951518
0.0300807
0.0032171
0.0255355
0.0314876
0.041936
0.0106621
0.010069
0.0196947
0.0235835
0.0124623
0.0135822
0.0121055
0.00588924
0.00583267
0.0100433
0.0164181
0.016687
0.005651
0.0155392
0.00669136
0.00650052
0.0051688
0.00908796
0.0669189
0.0539647
0.0360497
0.0608953
0.0751929
0.0261876
0.0183936
0.0503751
0.0600721
0.0575363
0.0209285
0.0151863
0.0353696
0.0378327
0.0319357
0.0223498
0.0298272
0.0135275
0.0122622
0.0014478
0.0129778
0.0123723
0.014375
0.0137134
0.00998092
0.0117662
0.00598574
0.00507669
0.00693164
0.00442516
0.0159316
0.0156329
0.00901286
0.0137223
0.0122848
0.00907927
0.0133459