/*--------------------------------*- C++ -*----------------------------------*\
  =========                 |
  \\      /  F ield         | OpenFOAM: The Open Source CFD Toolbox
   \\    /   O peration     | Website:  https://openfoam.org
    \\  /    A nd           | Version:  10
     \\/     M anipulation  |
\*---------------------------------------------------------------------------*/
FoamFile
{
    format      ascii;
    class       volScalarField;
    location    "19";
    object      omega;
}
// * * * * * * * * * * * * * * * * * * * * * * * * * * * * * * * * * * * * * //

dimensions      [0 0 -1 0 0 0 0];

internalField   nonuniform List<scalar> 
75457
(
32.9315
33.4871
25.2269
19.7374
23.4447
28.9391
27.6433
34.0753
16.6958
16.5931
15.6998
18.8673
18.7363
16.7818
2.40071
2.38308
2.04047
2.39976
2.32983
2.05763
2.21842
2.25164
2.40942
2.38834
2.3019
2.57377
2.60251
2.28269
2.36905
2.46837
2.17466
2.49068
2.52773
2.05707
2.00955
2.10721
2.03483
2.61651
2.52424
2.04561
2.08934
2.02121
2.03364
2.68067
2.97229
2.39141
2.30211
2.65574
6.25604
3.48787
4.92229
5.74993
14.1938
4.75049
3.8003
3.99606
8.01242
8.89488
8.09668
15.6689
12.2144
6.73406
8.73005
7.18436
7.06587
7.99507
6.66866
8.28811
8.47854
13.9348
8.19584
14.5484
7.76062
7.7385
8.06169
7.14549
7.59193
13.7991
9.44413
6.94817
15.8718
10.244
11.3446
7.42095
6.08038
5.67004
6.58709
7.25741
12.2194
14.3375
7.53267
6.58407
12.506
7.73696
5.69463
3.37717
3.67722
3.9118
24.0934
6.85669
8.41484
11.0507
22.142
20.0088
39.5619
41.0979
20.8261
18.6974
20.4607
7.28025
5.64164
15.7466
18.463
13.4155
5.31811
9.84438
22.1274
9.21829
8.59514
24.2183
6.03683
6.75606
6.6999
6.42727
7.53566
7.58569
18.1408
6.45077
11.4107
7.20032
6.85789
6.92454
6.55978
6.07951
3.33374
15.3489
7.04367
5.46089
5.72164
24.7055
4.41024
5.3984
6.65489
4.34045
4.56319
5.97902
7.10248
8.24772
17.9354
5.08455
31.8562
9.39948
5.12027
4.14389
8.96483
13.4792
4.43428
26.4191
5.32372
7.01517
26.5282
5.37295
8.11755
6.04645
6.26149
6.53359
6.22549
6.40084
5.79417
5.79281
6.07698
6.29552
6.02307
6.14485
5.96061
5.82161
8.69805
7.93313
7.59644
11.653
4.72512
22.3351
3.86767
12.1351
28.2
5.16719
3.81392
9.61634
17.8847
39.5354
7.91777
7.89839
8.54745
13
6.36996
24.5918
3.99286
4.582
4.04787
4.38638
3.88908
7.43834
8.64184
12.8531
6.20959
7.15029
12.8576
11.7527
12.6361
12.7596
11.177
11.4604
23.6889
26.4354
9.5946
11.0368
25.3227
11.0689
27.7135
25.848
26.5127
8.5312
12.2147
23.3194
10.6522
11.4136
27.7543
13.1678
7.86588
20.0356
5.04621
4.97833
19.7294
8.3453
9.56021
7.24029
9.34609
4.49809
4.79619
5.03936
5.28818
9.08426
21.6342
7.19859
16.5993
10.1578
6.99094
7.34611
10.9501
24.8053
10.5235
21.9237
9.77232
19.7466
8.06596
14.0825
6.29908
4.56943
5.29336
3.26558
3.7712
4.10247
4.6465
6.06979
10.0124
18.1636
11.7258
30.2207
17.2874
20.0436
26.6947
17.1318
5.94881
6.12382
10.0943
6.13182
10.5083
11.4568
17.43
10.1938
9.48532
16.1972
9.75013
15.3381
7.43002
14.7075
6.7928
4.18116
4.17109
5.45765
5.04289
5.45686
5.15326
17.4917
14.901
23.2517
15.5695
8.3904
8.16484
21.6083
8.543
7.74062
21.7116
3.16245
3.23793
1.6806
21.7116
2.72654
2.30959
21.7116
1.45886
2.73249
4.38698
2.67836
8.53751
7.6088
4.18476
5.6093
5.45857
22.387
8.51295
4.01674
4.24658
11.5471
22.387
4.51223
4.63821
5.17327
8.11064
12.9189
10.9747
9.76306
11.2273
25.8274
5.66842
5.82693
8.73606
7.88793
31.2275
9.8921
8.40094
29.8003
6.35958
5.87352
18.5105
6.88689
9.91141
5.92572
18.5105
5.86099
5.81424
8.30799
6.65596
4.77713
8.88444
8.20481
10.07
27.4154
8.29639
5.54882
15.6318
22.7728
15.9651
22.3179
4.53468
4.24338
5.50842
5.15578
7.47589
6.56496
11.1729
6.3463
6.9928
8.85945
23.7155
12.867
11.6963
7.77152
19.0968
6.67561
6.42781
7.28434
15.9208
15.9208
18.3246
4.19846
8.63955
8.78843
4.83692
4.26652
8.20859
4.52214
4.57217
4.42153
4.41167
4.58744
4.61096
4.51096
4.56994
4.59968
4.64266
4.52301
4.43168
4.51839
4.48575
4.44961
4.5587
4.44339
4.41644
4.36231
4.36105
4.4403
4.37671
4.4562
4.38849
4.49375
4.47617
4.36149
4.42524
4.4095
4.46058
4.44867
4.25704
4.32167
4.33693
4.37357
4.3142
4.3502
4.38597
4.43521
4.26126
4.30439
4.2612
4.25569
4.32301
4.37023
4.33694
4.41962
4.34391
4.36805
4.33956
4.37219
4.32876
4.35944
3.72342
2.83663
2.85316
2.84109
2.83639
3.53892
2.8652
2.8458
2.73393
3.8033
2.68418
2.78116
2.78247
2.83361
2.65012
3.41446
29.1074
16.9399
16.4465
19.8757
13.1162
13.2831
12.9803
15.0562
13.2082
13.5826
29.2494
31.4121
27.0765
18.5157
14.0624
11.2452
3.57217
3.51478
3.77499
3.9144
3.71139
3.63021
3.56037
3.51371
3.60221
3.63223
3.66286
3.85395
3.82739
3.60461
4.68836
3.7284
3.64832
3.65444
4.55617
4.61339
4.57939
4.50823
4.47807
4.51574
4.52855
4.54422
4.54278
4.5256
4.55713
4.62816
4.5447
4.58481
4.60725
4.62447
5.83171
5.59706
5.91699
5.59348
5.36332
6.01467
6.36182
6.03712
5.86424
6.03731
5.88031
5.75857
6.0148
5.73991
5.81214
6.24701
6.34104
4.7137
4.86782
4.6741
4.70511
4.6274
4.59547
4.68289
4.80589
4.60577
4.5026
4.72557
4.55898
4.4963
4.50894
4.57781
4.44486
4.62207
4.60452
4.03426
4.48268
5.3522
3.58788
4.73195
4.02485
4.56022
3.7997
3.64295
4.25373
5.38484
4.83286
4.00003
4.32094
4.0666
5.17926
5.32023
2.21587
2.17117
2.20483
2.42156
2.07885
2.50715
2.22381
2.18012
2.18731
2.61513
2.28393
2.16944
2.21139
2.15115
2.68446
2.64993
2.86086
2.58793
2.95142
2.93002
2.92953
2.73729
2.66826
2.97223
2.99263
2.95417
2.69986
2.58452
2.58084
2.85085
2.70043
2.79944
4.25283
4.27024
4.2941
4.49747
4.54661
4.29028
4.29387
4.49513
4.42355
4.47
4.26982
4.53192
4.0174
3.46093
4.34276
3.3008
4.24422
3.93792
4.19165
4.17213
4.18852
2.99602
2.8879
2.99351
3.34102
3.32298
3.01638
3.34126
2.04604
2.79261
1.99796
2.54543
3.95144
3.63827
4.81804
3.45947
3.29925
2.64435
2.3718
2.1499
4.1639
2.31073
2.45278
2.77972
3.64785
3.62759
3.65205
3.6856
3.80624
3.70286
3.64984
3.60335
3.58954
3.67768
3.70823
3.6812
3.6963
3.76404
3.76839
3.68029
3.6442
3.71831
3.59137
2.52517
2.4968
2.22717
2.82049
2.45829
2.74046
2.63825
2.32261
2.50345
2.18169
2.70062
2.5772
2.46116
2.47215
2.96531
2.72996
2.818
2.90815
2.73758
2.82803
2.60064
2.52712
2.60371
2.41887
2.46381
2.73673
2.5756
2.51329
2.56061
2.34334
2.40314
2.54007
5.0035
6.20847
6.36477
3.9358
3.94196
5.38658
4.6864
3.33812
3.65598
6.91527
5.56268
5.74116
5.66696
6.2202
6.31046
6.37821
7.18813
6.32477
7.10409
5.66524
5.76549
6.83403
8.73343
8.64195
7.49577
8.41953
8.52607
7.46724
6.08603
6.99554
6.88023
6.72248
2.73206
2.77161
2.99937
2.86012
2.86208
2.66354
2.7972
2.82874
2.81262
3.47996
3.89976
4.35231
2.61881
3.7986
5.17983
3.58276
4.41871
2.23406
3.38748
4.71784
5.99484
3.25801
3.69916
9.9025
7.29475
4.08659
7.36894
4.40423
4.84745
4.61975
4.81426
5.11997
5.25777
5.86635
6.41737
6.79881
6.77103
5.76935
6.94247
6.26924
6.88062
2.0851
2.14009
1.87144
1.90092
1.96249
1.91342
2.03685
2.06131
2.48915
1.99936
2.181
2.2473
1.86255
1.94443
2.31578
1.93198
2.17253
2.13939
2.05735
2.46228
2.54316
2.01313
2.61375
2.33028
2.79815
2.3542
2.33115
3.00607
2.85071
2.21573
2.58878
2.83793
2.64703
2.61159
2.95095
2.23626
2.42033
3.16167
2.69983
2.32172
2.08496
2.1125
2.78757
3.53853
2.32571
2.40937
2.92286
3.32426
2.36063
2.35712
2.55588
2.25449
2.26794
2.74613
2.86095
3.27878
2.31558
2.30063
2.53299
3.29055
2.41455
2.3311
2.59029
2.31112
4.16652
5.52961
2.19677
2.41287
2.748
3.14327
2.41951
2.55994
3.01018
3.65487
4.26932
3.88848
2.58259
2.60836
2.34494
3.01761
2.67805
2.70852
2.69142
2.48113
2.54785
2.52656
2.42603
2.35385
2.49912
2.49065
2.57259
2.53048
2.36313
2.59841
2.6521
4.4443
4.73016
4.83708
4.53104
4.68543
4.73576
4.84724
4.6067
4.69702
4.80956
3.03297
2.67084
3.01503
3.38172
2.55037
2.53426
3.34179
4.02892
2.60537
3.28644
3.15767
3.16958
3.53757
2.6015
3.42647
3.17356
2.53628
5.75991
6.07583
5.91855
6.29381
5.98698
5.68009
6.22097
5.91783
5.7539
5.71988
5.86006
5.74315
6.03265
5.7349
6.11364
5.60805
5.70527
5.51663
5.67873
5.54401
4.76812
4.8322
4.74873
4.77794
5.0224
5.15246
5.6015
4.91658
4.92437
4.79567
5.47872
5.53038
4.75863
4.86444
5.09233
5.81708
9.29319
7.83607
6.97756
7.63363
11.7824
9.23228
12.0574
11.5673
9.57614
9.28456
11.878
10.6414
10.295
2.93493
3.16329
2.95324
2.79556
2.71327
2.76354
3.10117
2.9892
2.7977
2.82657
2.54095
2.85565
3.85214
4.25272
3.98838
3.89696
4.18698
4.09968
3.76567
3.73464
3.70146
3.7715
3.79743
3.76684
3.85269
3.82524
3.91858
3.8506
4.02455
3.85443
3.84896
4.15982
4.14617
3.92062
3.91515
4.17793
3.0798
3.59941
3.97658
3.64635
2.8535
2.85733
3.53204
2.67921
3.09507
3.02981
2.78107
2.75999
3.0636
2.83773
5.22349
5.60402
5.91356
5.42697
5.33159
5.538
5.07248
4.90129
5.39988
5.3833
5.57273
5.3574
6.05812
5.72071
5.88687
5.65126
4.49434
4.91527
4.63227
4.40322
4.39459
4.48062
4.41528
4.3853
4.41376
4.50621
4.5873
4.4802
4.56008
4.56825
4.80315
4.64349
13.4641
11.632
12.7214
11.9419
14.4563
11.5425
5.81428
6.44737
5.95522
6.35197
6.12864
6.91424
8.80909
10.687
11.1506
8.43966
10.3058
10.4287
6.8598
9.9898
6.67515
7.63109
7.34509
7.07474
6.83756
7.154
7.732
7.37608
6.90026
7.31375
7.38406
7.05767
7.49277
6.96523
7.1334
5.01329
5.33673
5.32459
5.36909
5.97948
6.35026
7.20957
6.09878
7.55331
7.99535
7.54391
6.72894
8.56036
9.06324
3.73564
4.13542
3.62839
3.7198
3.59804
3.80841
3.42444
3.23877
3.9538
3.47749
3.61429
3.231
3.3899
3.22172
3.24643
3.19754
2.39209
2.43651
2.33372
2.35927
3.60888
3.6987
2.20107
2.87938
2.90592
2.20054
3.50937
3.30888
4.12553
3.24801
3.26014
3.76543
3.66412
4.3928
4.52064
2.66894
3.39092
3.07566
2.85846
2.75901
3.86748
3.1779
3.35184
3.58646
3.4219
2.59877
2.63005
2.93646
2.68848
3.55934
3.34209
2.77145
3.07603
2.85721
2.96543
2.63385
2.7401
3.07295
2.78451
2.7835
8.25881
7.18796
7.20115
8.12683
8.51416
7.54563
7.38093
7.57527
7.54243
7.46992
7.61259
7.44534
8.21748
7.98573
8.07356
8.32686
8.03989
7.83645
7.39895
7.85739
3.11831
3.07966
3.04303
3.0124
3.04604
3.20349
2.95846
3.04616
3.18126
3.05398
3.02235
3.01623
4.79351
7.09382
24.5437
5.42537
18.8191
6.40374
11.4778
20.9155
22.5227
5.15272
11.626
14.3985
24.1413
6.68017
11.4612
3.97467
8.40017
5.28813
4.71875
8.27027
9.80198
7.73886
4.66825
3.97157
3.90337
12.4917
14.4629
13.8207
15.3903
3.86463
4.01144
3.85939
3.70568
3.83476
5.60951
6.39218
5.23455
1.97973
2.2471
1.86526
1.96649
1.84807
1.82637
1.82665
1.84146
1.8496
1.84905
2.00809
1.89684
1.88872
1.85869
1.85777
1.86885
5.62597
5.75588
6.17923
6.27776
6.63023
6.93322
6.02805
7.03643
7.15876
7.62945
8.32906
7.44401
3.83164
11.6879
13.6804
9.70965
12.5258
4.59717
2.80688
9.64987
2.8944
8.5296
16.8024
4.82497
8.14003
4.12158
9.93352
19.011
10.1184
2.71174
4.43369
5.24508
19.9616
4.55244
6.64473
8.04368
12.7226
4.15028
8.05142
3.71618
21.1911
5.85495
7.10186
25.3531
5.36853
8.47064
7.77718
7.70265
16.2156
5.59756
6.55617
11.1497
15.1681
4.46136
3.95978
8.63046
3.86065
8.74721
16.1427
8.54348
3.47711
3.86891
14.983
9.30675
3.82221
3.53781
4.38613
3.65534
2.61647
3.07657
2.77924
3.73427
3.87525
2.34464
2.4768
2.50098
3.45294
4.27159
2.85206
3.08093
2.47058
3.39746
3.54115
4.34569
3.67745
4.0956
4.13163
3.9146
3.95178
4.67986
2.78952
3.62856
4.25596
3.98393
5.96141
8.53808
5.25819
11.8939
11.5772
10.9847
10.7642
12.2762
10.6203
10.1889
10.7769
11.1097
11.0529
12.3952
12.9158
10.2056
10.4344
10.8138
11.2203
10.9096
12.3857
11.6155
10.803
8.16565
10.1369
6.94815
6.76903
10.9456
10.9749
18.2381
15.9101
6.61138
7.00799
8.06834
10.3936
11.4698
15.4743
8.13273
10.1716
6.52118
6.59401
7.36327
5.17257
4.47448
4.38741
4.05536
11.6989
15.4633
10.131
12.7651
4.93574
4.44647
11.6431
7.45813
4.76435
7.65291
13.9333
8.48445
6.52577
11.494
6.56976
11.6806
2.3363
2.31045
2.74571
2.37507
2.70591
9.12256
11.6362
5.10123
5.50846
3.80322
3.51139
2.71994
3.54115
3.31588
6.43095
3.17805
2.62898
2.37022
3.24522
6.66289
5.99989
6.6154
6.41954
6.51932
8.86985
7.34335
6.81709
6.6542
9.28568
10.0033
10.8849
10.1763
7.8664
6.89448
7.8166
24.4815
22.835
24.0492
26.0454
30.4433
27.481
30.3362
43.4264
40.9922
36.5484
32.305
31.6983
44.7039
33.7532
32.5197
31.2405
38.902
38.7573
39.4794
29.3603
7.9464
9.57733
7.82005
10.103
6.26172
6.67494
4.25204
5.27276
11.9385
8.13293
16.9965
9.28953
4.66643
4.44459
14.062
11.0443
16.9512
8.78706
19.0154
6.52737
30.6399
37.5219
41.4723
55.8866
42.0922
29.8297
24.6174
39.509
47.1111
41.9993
45.3371
35.6074
62.5729
41.0425
79.012
80.9933
55.2753
3.21486
12.1831
7.01704
32.3926
6.11049
5.90465
8.60098
7.8091
40.0001
7.64829
1.96229
21.501
12.1226
11.5938
15.2063
14.5431
13.1313
11.6022
10.9358
10.6825
14.0156
15.139
12.595
12.9306
12.8397
14.186
11.5744
12.8931
12.8147
12.0091
15.4355
11.2156
11.3257
5.80032
5.6896
5.48595
5.62361
6.31572
5.8649
6.30293
5.73488
5.51087
5.63053
5.58589
5.46825
5.40939
5.36174
5.82264
5.67858
5.59424
5.49491
4.82463
5.26067
4.81224
4.98538
5.09229
6.31094
4.77631
4.95576
6.0813
6.95546
5.13517
4.84984
5.07735
5.9129
5.16063
6.0115
6.43234
6.43378
6.0724
5.70555
6.5465
5.57275
6.33709
6.22502
6.35334
5.61261
6.2375
6.2194
6.25672
3.14205
3.21499
3.17668
3.31636
3.07599
3.03394
3.15816
3.13459
3.48638
3.63917
3.12951
3.14453
3.19179
3.29709
3.49919
3.42431
7.12283
7.17598
7.31215
7.12027
7.08527
8.11409
6.97078
7.06711
8.47811
7.27796
6.59505
6.42259
7.12222
7.85566
7.68847
7.22362
7.25925
21.8374
21.9962
16.7872
18.1162
19.6366
21.9348
25.1974
25.5058
18.6401
19.7753
25.5624
30.1077
24.8678
26.6352
23.7592
25.1518
24.1289
7.30619
5.83702
5.39479
7.84571
5.25306
13.9266
20.3912
5.37436
11.4547
11.7101
8.90252
10.2923
11.673
5.84353
3.16501
10.0598
22.5995
4.00031
8.27291
6.79194
5.63533
4.63708
4.46866
6.87238
6.56106
5.27408
5.16442
4.926
4.81662
4.77779
5.00115
4.65079
4.49257
4.85843
4.5925
4.6385
4.86101
5.26002
4.68494
4.68291
3.93972
3.59559
3.28844
3.58245
4.16348
3.43941
3.37393
3.38887
4.3759
3.34084
3.47328
3.6694
3.87384
3.33742
3.22995
3.15776
5.43312
4.42992
4.82782
5.73362
4.85553
4.40174
9.00201
5.92125
6.26135
6.18574
14.1788
8.31374
5.02461
9.20663
4.45669
7.28739
9.08874
14.0407
16.5789
10.3421
14.7374
17.1515
10.7568
15.4461
11.3068
7.89688
5.86185
4.56138
14.6914
9.78791
11.1486
3.04321
4.36458
11.501
3.9045
10.4287
9.51623
3.80787
3.50924
3.28949
8.11261
5.52196
5.49119
5.41585
6.51115
5.5458
5.54122
6.35367
5.66176
5.57178
6.39495
5.59231
5.39892
7.63843
6.83813
10.3069
6.06838
7.02692
8.61
10.5109
9.12049
7.94167
7.05103
5.54963
4.42516
4.51257
4.69607
8.38681
6.94913
7.2596
6.89988
6.49852
4.19156
6.17664
7.60523
7.68035
18.2038
17.6165
6.36993
6.44369
6.90163
20.6407
8.45838
12.1873
7.49133
3.31687
9.04373
14.8005
6.13706
4.83044
4.05832
9.67669
8.43649
14.312
16.3747
6.69723
9.15057
10.0124
4.1566
6.11246
5.68034
4.40218
4.38552
9.53288
8.63051
10.0382
15.7213
6.92879
10.2708
4.41882
4.11261
7.73283
4.27355
5.94108
6.29004
5.32713
5.95337
5.44046
5.23651
5.14532
5.63149
4.90891
4.69602
4.33676
4.29069
4.61058
4.24495
4.18589
4.5846
4.51379
1.98006
2.00957
2.03673
2.01408
1.99829
2.13821
1.96014
1.94692
2.00151
1.97533
1.94419
2.13274
1.99938
2.06803
1.9744
2.07555
1.98375
2.01028
2.02691
2.35797
2.18619
2.00841
2.45177
2.19861
2.14765
2.12674
1.95019
1.76371
1.6929
1.95706
2.02317
1.66602
1.66821
1.82467
1.86157
1.664
1.713
1.71148
1.71886
1.70353
8.01477
7.42497
8.36273
8.92632
7.90693
8.64599
8.29339
7.1709
7.57129
8.70512
7.42833
7.21583
7.30032
6.8381
9.55834
8.09287
9.13517
3.94723
3.46546
3.95859
7.66274
6.334
3.46817
3.75847
3.74546
3.30452
4.62746
4.92071
6.8613
3.2256
3.14753
5.2343
6.69061
2.65979
2.79971
2.78255
2.76936
3.01152
3.88198
2.93093
9.60295
7.46253
3.43925
3.16701
4.76205
5.61137
8.20675
6.03057
6.24276
7.11962
7.94804
15.1808
20.9534
10.7011
20.0367
4.38108
7.39461
4.1721
1.82229
1.77736
1.82945
1.78143
1.73202
1.84708
1.79427
1.76607
1.96178
2.0358
1.91894
1.86475
1.79209
1.88168
3.19183
3.17301
2.84862
2.82471
4.07703
2.62782
2.80326
3.77637
4.42408
3.80093
4.6961
3.46115
3.12541
3.91972
2.54138
6.89737
3.14885
19.3013
19.3013
3.96541
19.3013
5.32384
5.17318
10.0405
5.70538
6.55759
5.23686
4.32074
4.06158
7.40926
4.37398
4.53062
5.73161
20.3901
24.2413
25.617
20.3906
21.2809
21.4985
23.7108
19.6309
23.4759
19.5386
10.0178
10.6881
7.68321
11.8562
4.30622
3.91565
3.51777
4.81267
7.19067
8.77393
10.4952
10.0388
8.80051
3.69561
3.8726
2.77754
7.99936
9.52715
3.86343
3.7654
3.65793
4.05821
4.30236
6.7481
4.27305
4.82063
4.83261
12.2309
5.37698
3.46398
4.09544
14.3546
6.91289
14.3627
5.08609
3.16589
3.3542
5.82105
5.76068
3.47935
7.99608
7.87167
7.45928
8.00135
7.5957
7.28378
7.66946
7.53815
7.09062
7.45164
7.15748
7.5008
7.77992
7.52918
7.15648
6.78226
7.02027
6.74263
7.22884
7.93559
7.90819
7.52491
7.77419
7.31894
7.22266
6.53807
6.05462
6.35413
6.12291
7.20281
7.27097
8.25107
7.87103
6.06166
6.02795
6.15555
7.13796
29.2613
29.9927
24.9819
23.6181
38.8026
31.9794
36.7128
30.9435
29.0111
45.8811
35.6809
37.5551
37.195
44.015
58.1717
55.9109
4.68243
4.88386
4.87873
4.66049
4.62244
4.66633
4.69028
4.61068
4.81145
4.80562
4.5513
4.71946
4.56272
5.44944
5.18852
5.49003
5.47022
5.38937
5.09875
5.76466
5.53669
5.71538
5.47397
5.63317
5.75711
5.34453
5.49781
5.36496
4.87822
4.95108
4.75392
4.82725
5.1574
5.06715
4.73647
4.76264
5.10702
4.9203
5.00976
5.04382
4.93448
4.95625
5.09144
5.2677
9.95956
9.91238
9.72935
9.10401
9.25602
9.61257
8.94546
8.78761
9.22975
9.3726
11.2155
11.0219
9.50625
9.18829
9.32398
9.40401
10.8553
9.75767
9.91566
9.73106
8.26463
8.08894
7.70001
7.3146
7.93613
7.75063
8.58145
7.90896
8.82937
6.62979
7.07766
8.66889
7.40055
8.14885
8.65853
9.65852
8.95609
8.83602
9.83895
10.0184
10.4329
9.35764
9.74781
10.7299
9.58182
11.4164
12.1961
11.5523
9.7683
8.96845
10.3138
12.5661
11.0513
12.8422
11.9789
12.1893
10.1452
13.5953
12.192
11.1585
10.7143
11.5613
12.4183
9.96801
9.72764
9.56499
10.3411
11.1161
3.40263
3.27143
3.23873
3.20511
3.58505
3.55875
3.50922
3.63281
3.66222
9.17754
9.57353
8.48681
8.52206
9.15306
8.35578
8.26552
8.70244
7.93626
7.77676
7.86265
7.82729
8.09728
8.87763
8.34345
7.89952
8.19028
8.37794
8.70922
9.23852
7.88203
8.60727
3.75179
3.8047
3.74583
3.75742
3.7744
3.91405
3.81067
3.64772
3.79545
3.70268
3.79377
3.66727
3.80736
3.62543
3.63584
3.66998
3.70767
3.68443
3.70208
3.68533
4.98068
4.76946
4.87101
4.67824
5.01588
4.76765
4.84531
4.94319
4.87541
4.78255
4.81097
4.62389
4.69628
4.7401
4.6995
4.93246
4.83803
4.95231
4.63394
4.82195
4.68803
4.92182
4.65424
4.51092
4.59799
4.61966
2.78636
2.98043
2.97551
2.82946
2.63987
2.69204
2.47271
2.57905
2.94237
2.54012
3.00324
2.73774
2.68003
2.41463
2.45794
2.68163
2.48581
2.4815
2.47397
2.49145
2.50862
2.55452
2.54661
2.68867
2.48932
2.54894
3.22893
3.28017
3.36978
3.36386
3.14982
3.18057
3.20302
3.66579
4.13123
3.66459
3.60299
3.22344
3.27914
3.29905
3.36182
3.33072
3.47745
3.27939
4.22646
4.30476
4.47961
4.25478
4.16463
4.39505
4.41641
4.1324
4.14832
4.25411
4.33628
4.15212
4.08893
6.45823
6.97886
6.53072
6.21847
6.54002
6.93296
7.44598
6.79967
6.75315
6.4257
6.58535
6.99676
6.63779
3.68572
3.13408
3.50602
3.65738
3.44394
3.25262
3.46861
3.5076
3.47559
3.73582
3.74249
3.61988
3.70368
2.53063
2.24097
2.24295
2.26252
2.27165
2.50706
2.38383
2.49804
2.26733
2.26965
2.34665
2.34542
2.26192
2.263
2.31443
2.27607
2.21889
2.26644
2.34843
2.3732
2.27614
2.29531
2.49178
2.47487
2.74651
2.3421
2.42838
2.42949
2.33736
2.43436
2.36915
2.56176
2.54002
2.49221
2.47699
2.50931
2.56778
2.5531
2.47106
2.44716
2.52827
2.59893
2.50741
2.5358
2.61358
5.33177
5.61786
5.69721
5.2568
5.36529
5.34379
5.52662
5.11737
5.18402
5.35245
5.11563
4.74827
4.65726
4.92095
5.10752
5.30359
4.85215
5.10106
4.93904
5.15631
5.17621
4.8702
4.88409
5.01064
5.57709
5.66319
5.71787
8.25414
5.70128
5.34838
5.44901
5.44203
5.54636
5.68116
4.60162
5.02702
5.21507
4.88445
5.94469
4.50151
4.8714
4.94722
5.40086
4.82259
5.10062
4.83062
4.8734
4.92892
4.69471
4.63584
4.67299
4.85833
5.11145
5.02054
5.21911
4.82802
5.06503
4.50719
4.57101
4.32455
4.36045
4.51689
4.6504
4.63319
4.67549
4.97141
4.97492
4.66035
4.58071
4.72097
4.82829
4.76532
4.67372
4.83048
4.82226
4.76733
17.117
15.8004
19.7464
14.2167
14.5045
18.3712
19.8417
16.3822
18.5641
17.3099
14.4899
18.6674
15.6227
4.13622
4.20873
3.93072
4.01729
4.07227
3.87008
3.82644
4.00122
4.02388
3.92401
3.86855
4.21784
4.11313
3.84514
4.06458
4.02967
4.50794
4.06969
4.64209
4.44288
4.02668
2.40178
2.41559
2.40002
2.44963
2.44049
2.41629
2.4905
2.49879
2.43088
2.36336
2.51643
2.54305
2.3654
2.41704
2.37864
2.42573
2.46555
2.46908
4.34307
5.32232
4.29396
4.65094
4.68842
5.01531
3.67836
3.59133
5.03039
3.70184
4.09965
5.47508
4.23923
4.0194
4.07199
3.86659
3.64299
4.28912
4.66889
3.60629
4.66494
4.03498
3.7963
3.60866
4.19769
4.72116
4.74375
1.77282
1.83838
1.85111
1.74023
1.88465
8.08374
8.31011
8.55934
6.4098
10.2019
6.19446
11.3443
13.4957
14.6107
11.9988
15.9919
12.9502
11.2683
13.5669
7.78085
6.01291
5.90138
6.26763
6.11137
4.86446
4.09259
4.54157
5.58008
4.96504
4.05832
3.78064
5.57434
6.15159
3.86954
3.87286
4.3218
4.48443
4.3543
4.91379
6.32425
7.29587
6.55909
9.70057
12.7361
2.26852
6.87799
3.40265
4.40708
18.96
31.159
21.1822
21.2331
9.82333
4.56987
7.96026
19.8115
18.3015
6.90675
4.96509
5.21787
4.27996
4.09463
4.22882
3.90145
4.02423
4.56114
5.67097
5.29599
3.605
4.38149
5.17339
4.48992
5.18471
4.01221
4.87782
4.73829
3.70487
3.77054
4.64736
3.46625
4.57873
5.03604
5.38246
5.14647
3.53804
3.41726
3.56351
3.6154
4.08584
4.03966
9.6134
9.9714
9.92813
9.32656
9.4129
9.56438
11.4038
9.1003
9.98808
10.6937
6.80878
6.73485
6.91656
7.90533
10.1833
8.27752
10.2749
10.0869
6.94905
8.10352
5.17878
7.03926
3.63576
3.62656
3.60485
3.56798
3.57145
3.50761
3.58775
3.62267
3.59413
3.59624
3.54092
3.49496
3.49089
3.60164
3.57916
3.52887
3.55654
3.52883
3.44644
3.49442
5.72441
5.92852
7.035
4.64969
5.61649
4.74819
7.14077
5.09193
5.48101
4.46036
4.52562
5.4389
4.67606
4.52292
4.8718
9.36773
8.69419
8.81587
8.96037
10.0649
7.95695
9.40512
9.4513
3.03247
3.14946
3.11939
3.14523
3.1039
3.09903
3.13811
3.22588
3.0626
3.06168
3.16641
3.08029
3.57472
3.67253
9.8528
5.40792
3.40661
4.0441
9.34515
6.95744
9.58672
10.0721
15.2365
7.52282
11.5497
17.3921
7.1759
4.4693
4.45436
4.88847
2.99468
3.04182
3.00769
3.0216
3.08523
3.03937
3.00046
3.16676
3.08581
3.07746
3.12847
3.18791
3.05495
3.04119
3.07031
3.17638
3.22562
3.1056
1.88877
1.89174
2.04579
2.09228
1.95374
2.04321
1.87243
1.89236
1.94113
2.16484
2.01685
1.92958
2.36595
1.96341
2.01141
2.02764
2.03722
1.92206
1.92795
2.09843
2.02832
1.909
15.8267
14.4476
16.3192
18.9279
15.1689
18.0754
15.91
14.3575
17.0396
18.8474
18.4899
17.0449
16.7715
15.6479
17.0035
15.2599
6.97901
6.67399
6.56926
7.39298
6.08306
5.92203
6.76726
5.87691
5.21176
5.39234
5.63046
5.50909
5.70505
5.15682
5.36751
5.60558
5.32764
5.3761
2.26247
2.68697
2.65576
2.27754
2.1631
2.06096
2.42881
2.50319
2.39798
2.27608
2.19333
2.21266
2.11657
2.0665
2.22116
2.11998
3.89926
3.87027
3.94783
3.88927
3.73625
3.89329
3.87488
3.88816
3.91128
3.8988
3.86233
3.91518
3.90242
3.87585
3.82571
3.81923
3.78694
3.78441
3.73203
3.74197
8.81686
8.61608
7.62318
6.59877
5.01177
7.14004
5.74987
6.24449
6.69862
7.94949
5.0777
4.84716
5.85999
6.06312
5.33
5.60635
3.7698
3.847
3.38996
3.46692
3.08792
3.48305
2.81979
3.32553
2.85006
2.63945
2.78719
2.63846
3.51604
2.93608
2.43003
3.19123
3.95484
2.10682
2.03841
3.36565
3.16268
2.89948
2.00663
1.92372
2.5875
3.02368
2.23604
2.12764
2.54671
2.82591
2.83535
2.84829
3.07254
3.11834
3.06463
3.12909
2.80764
2.88022
2.69149
2.76521
2.79398
2.74934
2.98008
2.97446
2.72728
2.87057
2.94407
3.74472
4.00415
3.38553
3.12506
4.48981
4.08046
3.49178
3.47974
3.90706
3.11119
3.15638
3.06154
3.08069
3.22465
3.24774
3.09481
3.20824
3.15654
3.63285
3.33533
3.2136
3.23859
3.30428
3.31296
3.27152
3.20597
3.32711
3.3074
3.24714
3.32277
3.23848
3.25321
5.93035
5.63086
5.69503
5.83188
5.56956
5.75153
5.85328
5.77256
5.6869
5.70635
5.68536
5.52736
5.50987
5.51556
13.3021
13.648
17.8938
17.4839
18.3761
18.4896
13.2145
11.8369
15.4287
16.3647
13.5946
16.5858
14.4316
15.0423
1.92705
1.97095
2.01692
1.99608
2.26695
2.40157
2.29523
2.43645
2.00424
2.21154
2.17035
2.16937
2.28136
2.15445
2.03177
4.83905
5.64096
3.89684
2.39651
4.20585
5.42412
5.94192
3.60503
3.98709
3.63049
3.67765
4.01257
3.69871
3.75645
3.62008
3.47878
3.74436
5.39224
5.70089
4.61753
4.58548
4.07567
3.78819
4.46164
5.01975
3.80268
3.80845
4.51722
3.77169
3.66843
3.69481
3.56279
3.57039
3.56132
3.69203
3.61476
3.57458
3.63486
3.44307
3.16063
3.18587
3.49588
3.58866
3.67404
4.39951
3.14152
3.11058
3.11216
3.63794
3.00776
3.00939
4.11414
3.84446
3.49051
2.888
3.42468
2.5978
2.43177
3.59396
3.41331
3.40639
3.16557
3.65098
2.37432
3.04345
2.49582
3.44677
3.71904
3.18359
3.4983
3.8434
4.05694
3.48016
4.04233
3.80752
4.17174
3.96123
4.2801
4.24307
4.14024
3.45159
4.04792
3.22986
3.27368
3.94528
3.73547
3.5993
3.42201
4.07917
4.11482
4.17849
4.11233
3.97934
4.09448
3.99689
4.03075
4.03748
4.02152
3.95775
3.97835
3.97518
3.93026
4.03126
4.03873
3.96883
3.93687
3.94631
3.91889
6.89023
6.58975
5.31468
5.70345
7.31977
6.24891
5.5329
6.5607
4.93694
5.0559
5.02289
6.70052
7.84256
7.43133
7.49949
7.55271
7.6671
7.45826
8.02043
7.87437
7.33344
7.36757
7.05176
7.10768
7.03877
7.95746
7.65489
2.28521
2.35609
2.30461
2.28075
3.04969
3.02935
2.96607
2.82499
2.84022
2.46963
2.67518
2.21137
2.23292
2.60077
2.58251
2.4446
2.89808
2.88736
3.32252
3.10069
2.95246
3.84452
3.8177
4.30525
4.12316
3.58433
3.96386
3.72626
4.05164
6.90514
6.13431
6.26688
5.89313
6.4553
7.9122
5.98996
6.07375
5.90508
6.11789
6.59562
8.08403
6.13846
14.7258
15.7545
15.2077
12.8835
13.8896
12.9636
11.9789
9.26913
9.75584
15.7806
14.9895
16.0313
16.1859
9.68679
9.67917
13.472
11.5805
10.0941
10.8302
13.5569
4.75913
4.73761
4.63216
4.71568
4.53716
4.46879
4.94725
4.59029
4.65602
4.5826
4.93823
4.6529
4.66895
4.91437
2.70081
2.07126
2.12213
2.1241
3.72237
5.58093
2.95555
2.7374
3.45788
3.96418
2.15471
2.37722
3.23707
2.79176
2.0359
3.15737
2.55314
2.20866
6.37916
6.90893
5.37477
5.33208
6.38257
6.74529
6.31054
5.42226
5.41084
5.62073
5.6281
5.34244
6.43535
6.84377
7.19497
6.15277
6.52793
5.82335
5.85354
5.41074
29.9128
6.90601
14.0268
7.05753
9.36352
2.63659
2.58709
2.81933
2.93804
2.4106
2.52267
2.43719
2.37835
3.09892
2.85443
2.77246
2.72825
2.39291
2.56898
12.1332
12.2972
12.8526
18.2779
15.6993
18.1512
6.12196
7.5913
11.6599
15.4277
6.23812
4.76551
4.87308
4.95594
4.88737
4.626
4.64149
4.76006
4.73836
4.86677
5.01309
4.87766
6.93463
7.04595
8.26437
7.87394
6.60303
6.1678
6.19931
7.68805
6.80307
6.43697
6.48936
5.93654
7.69161
8.2842
7.53359
5.60328
5.72124
5.50643
5.44314
5.62791
5.50867
5.22588
5.32942
5.28224
5.28558
5.53294
5.79203
5.39829
5.50301
5.43879
5.38984
5.6956
5.8321
5.40787
5.62876
5.51414
7.84286
7.46506
7.4914
7.07436
6.83255
6.38207
7.67384
8.14766
7.19763
6.51159
5.93689
6.84278
5.92336
7.411
5.89921
7.06244
6.44287
8.27238
8.21584
7.92967
7.80866
8.50863
8.90652
8.37225
9.43654
9.81406
8.79047
8.24004
9.13395
8.55782
7.49098
8.16349
9.08884
7.98974
8.27655
7.70416
8.34764
5.83274
5.97281
5.77528
5.85513
5.59746
5.79311
5.95376
5.69562
5.74439
5.90605
5.88857
5.91692
6.12922
6.1377
2.65762
3.01986
2.84784
2.99768
2.92121
2.79169
3.44691
2.78233
2.87004
2.99527
3.79906
3.006
2.83745
3.94423
3.26145
3.82158
4.32743
2.87647
3.18053
3.55626
5.56595
3.77202
4.71058
3.29133
4.83844
2.09638
2.14021
2.30577
2.05602
2.19027
2.2083
2.11534
2.16351
2.24229
2.13426
2.04057
1.99616
2.06442
2.00142
2.07588
4.06027
4.13296
3.58662
3.32729
10.0521
11.2077
3.2962
11.7804
3.72639
3.96415
3.72729
6.56691
5.76143
10.6503
12.2937
8.30404
9.66592
8.56624
5.72961
5.86762
5.84538
5.71518
5.9704
6.47118
6.15448
5.98798
5.86582
5.68719
5.68567
6.35098
5.80689
6.40011
5.93876
6.47086
5.70545
5.67302
6.48424
5.91066
6.30756
4.58832
4.50118
4.50182
4.48214
4.52235
4.51641
4.58827
4.60838
4.54183
4.55366
4.60984
4.69788
4.809
4.7247
4.68367
3.62589
3.69329
3.65085
3.63458
3.68255
3.75549
3.71233
3.60813
3.9592
3.7745
6.74373
6.8946
7.16635
6.9655
6.54824
7.07738
7.53134
7.32406
7.31903
6.85587
6.74981
6.99776
6.1523
6.37302
6.85151
5.91878
5.5146
5.87451
5.77574
5.97633
5.50508
5.41964
6.1723
6.11698
7.22835
6.82528
6.23974
4.87092
5.26097
6.54502
6.43654
5.95642
3.02768
3.13566
3.13632
3.13523
2.6221
2.92444
2.59662
2.5879
2.57665
3.25499
3.36894
3.1415
2.6165
2.8319
3.39329
44.3286
15.0171
20.9545
10.039
17.8931
35.7639
31.762
26.3128
12.9743
11.5562
10.039
23.6689
15.8518
14.7601
27.327
4.93704
4.79573
4.9263
4.87569
4.7192
4.84064
5.36259
4.94897
5.71129
5.09294
5.47312
5.03046
4.90667
5.11709
4.98327
4.81311
4.8227
4.87692
5.04166
4.68406
4.63579
4.97496
4.87096
4.96255
4.83155
4.81391
4.84964
4.69211
4.74774
17.4104
12.6107
19.0638
33.1291
23.91
18.8215
16.9851
33.1291
19.1808
3.08402
2.86137
3.15755
3.12176
2.82718
2.84933
3.18049
4.03662
4.09486
4.89415
4.79289
3.60856
3.73855
4.5707
3.25941
4.15777
4.2048
3.30287
59.7777
66.9503
81.1599
38.2144
64.792
75.0834
105.349
101.138
45.0829
89.1212
60.3073
61.1963
85.1144
88.1013
122.341
124.519
212.202
76.5919
92.2337
122.495
204.111
62.2229
65.9204
62.0297
81.1258
63.6792
121.402
46.9797
46.1197
82.0666
62.5249
8.80404
5.74106
7.33801
20.5719
8.5543
26.0356
4.97523
8.50445
14.821
8.1282
9.50816
9.27955
10.5373
9.53754
10.0911
8.8917
8.39159
9.69433
10.6185
9.74648
10.5863
10.4501
9.8513
10.2955
9.90854
14.9585
15.0175
15.252
13.9349
16.9687
17.1582
14.4028
13.2124
17.1555
14.7818
15.3956
11.6038
12.6517
10.7855
13.703
9.11415
14.9627
13.1
8.56411
24.936
23.4787
32.8729
28.7046
28.0429
26.8661
28.3087
34.7047
37.1005
35.9938
36.8191
41.8264
45.2211
8.36321
7.47612
12.8538
15.5201
7.94557
8.39547
14.7184
11.4535
7.49438
7.28137
11.8966
8.51177
8.08007
8.24937
9.66349
14.1154
16.1713
19.6242
15.4244
19.0713
16.3785
10.4464
22.856
13.1777
22.5289
23.2164
22.418
28.2482
24.9051
9.44648
8.58853
20.6696
26.5374
28.2318
20.7142
3.35034
3.31263
3.22821
3.27451
3.30404
3.33855
3.36815
3.31919
3.18753
3.18885
3.32005
3.36685
3.28236
3.36847
3.34398
3.69342
3.5586
3.58122
3.25048
3.45018
3.6052
3.3057
7.35067
6.86857
7.18951
6.73566
7.1282
7.33405
7.81224
7.6841
7.34435
7.03163
7.12
7.67001
7.11048
7.81201
7.50111
7.40773
7.1664
3.57244
3.76242
4.05996
4.05428
3.89475
3.70122
3.54526
3.58656
4.14378
4.36388
4.86644
4.77303
5.37841
3.25264
3.79186
4.02216
3.94479
4.27057
3.88917
14.938
12.8686
8.20501
8.5031
7.68619
7.44742
8.41888
10.0877
15.96
16.2881