/*--------------------------------*- C++ -*----------------------------------*\
  =========                 |
  \\      /  F ield         | OpenFOAM: The Open Source CFD Toolbox
   \\    /   O peration     | Website:  https://openfoam.org
    \\  /    A nd           | Version:  10
     \\/     M anipulation  |
\*---------------------------------------------------------------------------*/
FoamFile
{
    format      ascii;
    class       volScalarField;
    location    "19";
    object      p;
}
// * * * * * * * * * * * * * * * * * * * * * * * * * * * * * * * * * * * * * //

dimensions      [0 2 -2 0 0 0 0];

internalField   nonuniform List<scalar> 
75457
(
-33.7024
-30.4775
-26.2899
-23.9696
-19.3726
-20.6575
-29.4565
-29.1093
-18.4927
-13.1044
-16.96
-18.4662
-17.8651
-15.6336
-3.7481
-4.21771
-3.94015
-4.09415
-4.56294
-4.08369
-3.57324
-4.24117
-4.25329
-4.51488
-4.30617
-4.6683
-4.40242
-1.25414
-1.28174
-0.793133
-0.386748
-0.751512
-0.797422
-0.831256
-0.219903
-1.24167
-1.15918
-1.48917
-1.57253
-0.491315
-0.726555
-0.520463
-0.984044
-9.27623
-9.05697
-8.24626
-8.38136
-8.76262
-4.85041
-5.3623
-5.69018
-5.15392
-5.36832
-5.45275
-5.77595
-5.7627
-5.56744
-5.76338
-5.12134
-5.44229
-5.23362
-5.07286
31.8233
32.085
31.8245
32.15
32.3764
32.4042
32.0637
32.1021
32.3623
32.1535
31.8977
32.1428
32.1324
31.8232
32.0223
-8.61026
-9.71101
-7.99248
-9.97695
-11.5546
-5.60272
-5.91582
-8.16589
-8.72569
-8.4361
-8.5953
-5.85781
-7.28761
-5.82481
-5.83076
-7.07626
-5.95287
-6.67237
-6.83277
-6.85876
-7.2044
-6.79556
-6.6386
-7.80922
-7.04171
32.313
32.2016
32.4645
32.4807
32.3463
32.1962
32.1159
32.5684
32.5706
32.183
32.1938
22.8772
23.5407
26.0138
25.5856
22.9412
24.525
24.558
24.0255
24.3833
26.079
25.8626
26.4072
26.9484
25.698
25.1346
23.9338
26.3611
25.3542
14.3698
14.3311
13.7466
14.6396
14.2302
15.7695
15.4519
15.3404
15.3283
8.4067
7.94578
8.51697
8.05657
7.48584
7.99927
8.02376
7.07077
-6.75239
-6.79558
-6.18409
-6.3845
-6.77766
-6.42656
-6.1311
-5.63619
-4.099
-4.13872
-5.68926
-5.41363
-4.94317
-5.65154
-4.52453
16.9813
18.5896
18.8328
18.1692
18.5911
14.8599
16.2477
17.815
16.8217
17.7868
15.104
13.7825
14.3769
-9.14485
-9.61908
-9.48859
-9.69964
-9.46789
-9.59859
-8.92291
-9.6197
-9.46267
-9.707
-9.69419
-9.52842
-9.4543
-9.57277
-8.43248
-7.06208
-9.55828
-6.94995
-7.27505
-8.86329
13.0911
13.8806
12.5452
13.2892
11.4949
12.3067
14.6531
14.3768
13.4561
10.6921
10.669
-7.40372
-7.24997
-7.66333
-7.62109
-7.57231
-7.49993
-7.33444
-7.21826
-6.82243
-7.65057
-7.40131
-7.17828
-7.53605
-7.14552
7.07496
6.13235
6.53002
4.82302
5.3818
6.13774
6.04781
7.29607
6.86887
5.92996
5.31255
4.65532
6.91629
5.33943
-6.85143
-6.92848
-6.65111
-6.61325
-6.91227
-6.84911
-6.93285
-6.88629
-7.08575
-6.614
-6.86266
-6.34415
-6.96783
-7.05665
-6.79647
-6.7565
-6.90738
-9.268
-9.07433
-9.00507
-8.99292
-10.2303
-8.75171
-8.63879
-8.05354
-8.90406
-9.37899
-8.37556
-9.06936
-8.74012
-8.65498
-8.53479
-8.7067
-8.34956
-8.81857
-9.05947
-8.80606
-8.50969
-8.95124
-8.60397
-8.35481
-8.64184
-4.00384
-3.76838
-4.05744
-3.52204
-3.5422
-3.40085
-3.20435
-3.16655
-3.13807
-3.61815
-3.93367
-3.8018
-3.06092
-3.49006
-3.41891
-0.609444
-0.468837
-0.288448
-0.531372
-0.279905
-0.378925
-0.702305
-1.03155
-0.069724
-0.0374171
0.15679
-0.0699929
-0.131688
0.122944
0.554303
0.2351
0.0285232
0.271702
0.115347
0.0763477
-0.011613
-0.0772857
-4.63556
-4.92787
-4.25751
-4.40639
-4.5981
-4.55077
-5.03476
-5.02793
-5.335
-5.49536
-5.06176
-6.6627
-6.77729
-6.93527
-6.91486
-6.8446
-6.61081
-6.62329
-7.02207
-7.27319
-7.02135
-7.26962
-6.38679
-6.67324
-6.83635
-6.97031
-6.77448
-6.90157
-13.1283
-12.1711
-11.8894
-13.4031
-15.8803
-15.0428
-15.1414
-14.6182
-14.2699
-13.7806
-15.1881
-3.62233
-3.74995
-4.23596
-4.05516
-3.90559
-4.19013
-3.99249
-4.60856
-4.18108
-4.24208
-3.69375
-0.203598
-0.0210007
-0.2972
-0.341572
-0.0586196
-0.0941882
-0.380033
-0.132395
-0.506038
-0.50534
-0.624707
-0.234796
-0.404423
-0.881632
-0.919976
-5.27811
-4.49012
-5.81775
-5.27603
-5.12073
-7.02885
-7.38393
-7.00646
-7.30016
-7.39359
-7.02377
-7.77443
50.5513
55.3432
43.9878
46.6073
49.4155
51.492
51.1242
53.965
46.6303
51.0247
49.2354
50.2579
46.4148
50.8615
45.0887
46.6167
48.5192
43.5533
35.3748
34.9243
35.7149
36.4561
37.3536
38.3372
35.5864
36.202
38.7051
42.1883
38.9216
39.0998
40.7791
26.7531
23.9816
21.3925
23.0207
27.6493
24.3509
22.8984
24.2953
23.9475
22.0556
29.3286
29.2968
22.3764
23.9193
21.4113
27.6237
29.7262
29.769
25.7601
25.7406
26.4166
27.7313
-8.54578
-8.89668
-9.11598
-9.10009
-9.19998
-8.62845
-8.69287
-8.81797
-8.97117
-8.63501
-9.04956
-8.63577
-8.78036
-8.73204
-8.86843
-8.83023
-22.5017
-25.0394
-13.0512
-20.8667
-11.3074
-17.9809
-15.3366
-12.5931
-11.5313
-16.1117
-29.3183
-24.5362
-16.1552
-22.2968
-11.3129
-13.8572
2.57313
2.41469
2.57956
3.42774
3.80279
4.41303
2.22236
1.89141
3.55759
3.5309
4.42061
4.06905
3.79299
3.71545
3.55414
2.89488
2.15606
2.97155
34.4966
38.482
37.032
33.6813
35.0006
37.7445
41.2971
40.3972
35.2228
41.2265
42.9038
41.1821
37.2912
34.0691
34.8664
35.9368
27.5963
26.9429
27.4445
27.2166
26.3662
28.1578
28.7322
28.1122
27.4811
28.4154
27.8571
27.0382
27.894
26.3147
27.0001
28.5309
29.0084
12.915
12.7701
12.485
12.857
12.845
12.8941
12.9726
13.0597
13.1015
12.9482
12.5785
12.6452
13.1652
12.8116
12.9106
12.2081
12.2039
-4.47618
-5.40326
-7.00805
-6.03212
-5.0087
-5.13923
-4.73287
-4.79009
-5.39903
-4.90952
-6.65563
-6.74075
-5.75803
-3.84492
-6.27375
-5.37395
-5.3906
-6.07676
-3.78712
-3.85218
-3.71757
-3.67887
-3.13587
-3.42056
-3.59727
-3.62591
-3.14914
-3.33096
-3.46115
-3.11446
-3.02309
-3.38371
-5.77687
-5.38262
-6.23722
-7.09979
-7.11228
-6.48824
-6.17506
-6.13571
-6.03365
-6.9628
-6.99279
-6.81378
-6.39154
-5.88394
-6.18509
-6.88301
-7.09384
-7.21502
22.1065
17.866
18.6767
25.4005
21.7219
15.8632
18.7981
18.904
15.4014
23.7526
18.9381
16.0532
-8.14493
-7.86538
-7.66982
-7.52735
-7.89378
-7.69622
-6.36917
-6.72913
-7.78731
-7.73886
-7.63497
-6.79603
-6.76107
-7.44905
-7.53405
-7.37175
-4.69017
-5.28246
-4.26715
-4.79033
-5.95135
-5.77453
-5.8455
-4.6984
-4.43222
-4.48374
-4.53231
-5.25725
-5.82711
-4.8685
-4.38291
-5.17171
5.17615
4.41021
3.74754
6.969
7.85072
5.43404
6.1446
2.91103
4.47455
5.17393
6.75176
5.67599
6.73437
7.55184
7.28238
4.2078
4.31634
5.60732
3.69972
-2.37273
-1.39463
-2.3824
-3.77388
-2.86124
-1.88491
-3.56666
-3.12922
-2.41453
-2.77278
-2.30919
-3.66647
-2.53225
-2.12639
-1.66055
-1.35791
-1.30815
-2.04712
-1.64019
-1.71625
-1.49839
-1.51599
-2.00209
-1.33939
-1.79168
-1.50567
-2.18102
-1.19864
-1.23211
-1.31957
-1.2012
-1.58513
-3.3279
-3.95559
-3.01359
-1.6248
-2.09264
-5.77524
-3.25871
-2.92622
-2.93841
-4.03484
-5.47043
-7.23064
-7.5389
-7.48798
-7.26821
-8.38493
-8.75384
-8.47103
-9.43369
-6.77957
-6.53833
-8.77854
-9.90093
-9.56971
-8.61237
-8.42053
-9.74127
-8.62539
-8.28488
-8.81045
-8.87917
-7.73714
-9.14118
-9.21387
-8.92838
-9.11986
-8.86162
-9.06855
-9.10209
-8.89575
-8.71487
-8.84702
-9.07211
-8.84801
-8.93185
-8.83736
-8.96342
-8.89912
-8.8873
-6.25194
-6.79158
-8.20429
-8.07741
-7.0306
-7.58765
-8.08542
-7.81434
-7.13704
-7.96746
-7.13717
-4.14275
-4.9264
-3.17791
-3.12053
-3.35659
-3.11535
-3.2446
-2.25299
-3.28516
-3.57
-3.16904
-3.34135
-2.84574
-2.68829
-2.5028
-2.48436
-2.78715
-2.71436
-2.15378
-2.64177
-2.42278
-2.79768
-2.76844
-2.35401
-2.37845
-2.50535
-2.1871
-2.47613
-2.31853
-2.13033
-2.37054
-2.07441
-2.30267
-2.42927
-2.15183
-5.58118
-5.81552
-5.71923
-5.65327
-5.24675
-4.71899
-5.67054
-4.48971
-5.26608
-4.0441
-4.81723
-5.20514
-5.43467
-4.98729
-4.7797
-6.19721
-5.14448
-4.60142
-4.3689
-4.32258
-6.16192
-6.31629
-6.49527
-6.45273
-5.75557
-5.89743
-6.82932
-6.56702
-6.29615
-5.6419
-5.83902
-5.78075
-5.59433
-6.02179
-5.98939
-6.3683
-5.37537
-5.64552
-6.02782
-6.32502
-5.45168
-5.67781
-6.03889
-7.0652
-5.92095
-6.60895
-6.3795
-7.72631
-5.89984
-5.67787
-5.69378
-6.40405
-6.86372
-6.30712
-6.97721
-6.02839
-5.93603
-6.30402
-6.015
-5.79982
-5.34458
-6.7015
-5.93724
-6.80509
-7.72135
-7.14919
-6.86721
-6.34771
-6.36217
-7.26941
-7.36373
-7.94218
-6.86163
23.0925
23.6036
24.5604
23.5778
24.3825
23.094
24.1323
22.979
23.5625
24.5574
-8.7032
-8.53303
-8.24437
-8.29671
-8.84856
-8.81583
-8.34539
-8.47963
-8.81565
-8.20039
-8.57752
-8.3761
-8.34777
-8.80574
-8.39961
-8.66663
-8.79408
-9.18031
-8.64062
-9.54106
-9.28525
-9.00821
-9.69327
-8.52372
-9.31716
-8.48513
-8.2835
-9.28153
-9.52678
-8.35205
-9.34285
-9.436
-8.97413
-8.63607
-9.64341
-8.94299
-8.95276
12.3532
12.7546
13.4472
12.8709
12.5468
13.667
10.2491
11.8275
12.0542
11.7064
10.9997
13.103
12.5799
13.1095
12.2234
11.7908
-13.1847
-14.2934
-13.2719
-12.7227
-12.8505
-10.7226
-11.3778
-12.1489
-12.8781
-13.3775
-9.61276
-11.0815
-12.2322
-10.685
-11.7292
-9.74877
-9.41486
-9.43353
-10.4962
-10.6176
-11.2655
-9.51119
-9.06953
-8.78538
-9.95569
13.1558
12.1484
11.7817
11.8538
11.9137
10.4181
10.0847
9.49892
9.54855
10.1136
10.2484
9.32757
11.115
10.2047
11.9193
12.0219
10.0525
11.1786
10.7897
-8.29346
-8.29808
-8.9005
-8.26505
-9.77028
-8.49203
-8.03751
-8.63756
-8.74049
-8.32269
-8.207
-8.96608
-9.10112
-9.6115
-9.06925
-8.48344
-8.27662
-9.25255
-8.98661
-6.2283
-7.53532
-6.76499
-6.54096
-6.41704
-6.86516
-6.45341
-6.06312
-7.11228
-6.73451
-6.75364
-6.39838
-6.85936
-6.74667
-7.00023
-7.05104
22.4887
23.0627
22.4024
22.1905
23.4786
24.3501
24.0642
23.174
23.2203
24.0489
24.2169
23.3013
24.1188
24.6761
25.3331
24.7843
-10.9609
-12.697
-9.15371
-8.87066
-14.2061
-17.0556
-6.10485
-7.12722
-9.8555
-12.4611
-9.28737
-9.89128
-11.375
-16.8615
-15.1471
-7.62991
-12.7068
-9.62021
-13.2172
-15.5673
58.8653
52.9164
48.5691
48.2326
57.3412
58.6432
52.152
56.9588
51.1391
53.1333
50.7143
51.149
47.9729
47.8384
53.5558
21.2231
19.9186
24.5386
26.2374
24.0806
21.0093
26.3612
22.9187
25.3651
28.6271
27.575
28.8025
30.5231
28.3501
-13.9083
-14.6445
-14.1936
-14.9439
-13.0492
-13.3103
-11.6806
-10.5462
-12.8812
-12.8281
-11.0053
-10.5384
-13.337
-11.6168
-11.2789
-11.9179
-5.02482
-4.75236
-4.78657
-4.95249
-4.76313
-5.05217
-4.68173
-5.01464
-5.19016
-4.56183
-4.62053
-4.56821
-5.12306
-4.94609
-4.6235
-4.81993
-4.76843
-5.08414
-4.89838
-9.42381
-9.41912
-9.05669
-9.82492
-9.95428
-9.78455
-9.06894
-9.88625
-9.76151
-8.29088
-8.948
-8.81507
-9.20451
-8.91031
-10.099
-9.77212
-8.60679
-9.02326
-8.76314
-8.86771
-8.51876
-8.5913
-9.05604
-8.52415
-8.63246
31.2824
30.4618
30.5276
30.9645
31.1348
30.7524
30.5377
30.5683
31.2763
31.0771
31.1336
30.887
30.9577
30.7392
31.0527
31.1164
31.1467
30.943
30.5948
31.2108
-6.16154
-6.97686
-6.09974
-6.62027
-6.10184
-5.78433
-5.93881
-6.71565
-5.71632
-6.02658
-6.23853
-6.42538
-4.11898
-4.20897
-3.8302
-3.69367
-3.51625
-4.18216
-4.18275
-4.31088
-4.09274
-3.67541
-3.66935
-3.97727
-3.99631
-3.66328
-3.79206
-3.73203
-3.90839
-3.76417
-2.87315
-2.68665
-2.87947
-2.69467
-2.83783
-3.10718
-3.19143
-3.3059
-3.41287
-2.72459
-3.16337
-2.80461
-3.419
-3.20722
-3.02348
-2.89057
-3.43386
-3.08526
-2.82111
-2.30928
-2.35703
-2.59837
-1.81716
-2.25739
-2.09093
-1.96373
-2.76411
-2.36134
-2.98892
-3.02963
-2.17328
-2.16073
-2.16907
-2.931
-2.98662
-5.56044
-5.62485
-6.05691
-5.89979
-5.91426
-5.48765
-5.52787
-6.09187
-5.98436
-8.82262
-8.58668
-8.64984
-8.81319
-8.94763
-8.96155
-8.78531
-9.05927
-8.73735
-8.62359
-8.93922
-8.73816
-3.95372
-3.79362
-3.96217
-3.95988
-3.87841
-4.09258
-4.04222
-4.21736
-4.16697
-3.98915
-4.45779
-4.41704
-4.36051
-4.45954
-4.27284
-4.43255
31.7526
31.969
31.6831
31.4271
31.0847
31.1703
30.6837
30.6251
30.8927
31.423
-6.64117
-6.38244
-6.63923
-6.40073
-6.74852
-6.62468
-6.88951
-6.85618
-7.04441
-7.03825
-6.80184
-6.59574
-6.83139
-7.21797
-7.13615
-6.9263
-6.84092
-6.77793
-4.85822
-5.13443
-4.7688
-4.84331
-4.78714
-4.77103
-4.99048
-4.8015
-4.94615
-5.35179
-5.10876
-5.16762
-4.93046
-5.11395
-4.71771
-4.80509
-4.99195
-4.79761
9.45557
8.8339
8.24333
9.22946
7.42029
6.84292
9.87162
9.33629
8.00856
9.55568
8.57349
7.6489
8.42967
8.46649
31.5325
31.4297
31.3124
31.1379
31.5849
31.1821
31.0021
31.036
31.3411
31.1593
31.3268
31.4511
31.0291
30.9945
30.8834
30.9257
31.3026
31.0984
31.2425
31.0124
43.9401
42.5843
35.7349
38.8343
28.3781
32.7261
18.2082
33.9699
33.9132
31.2861
37.0244
27.1721
38.8431
44.0034
39.7854
47.2955
28.8959
40.1448
35.6511
-7.86596
-8.3158
-4.8157
-3.39076
-9.27095
-11.4258
-10.8507
-13.0972
-4.43711
-4.58295
-15.0045
-11.5545
-6.38244
-10.8176
-12.1109
-7.32453
-7.60619
-12.2012
-9.47152
-9.24951
-0.968203
-1.56306
-1.50781
-1.51474
-1.89712
-1.08266
-2.35378
-1.65117
-1.67929
-1.70275
-1.6815
-1.55965
-2.3311
-1.35406
-2.36979
-2.34899
-2.09088
-2.11136
-1.30479
-13.0105
-12.7489
-13.4894
-13.0807
-13.6958
-14.5368
-11.8955
-12.3915
-13.1452
-10.4158
-11.7307
-12.1754
-12.41
-12.7287
-12.7186
-13.1936
33.1435
33.0942
32.961
33.0374
33.3106
33.3281
33.2048
33.2337
33.0438
32.9076
33.4284
33.2044
33.3685
33.3632
32.9867
32.9095
33.0778
33.249
33.3801
32.9745
0.507279
0.355369
0.923028
1.34347
-1.61669
-1.70471
-2.14051
-3.00592
-0.888898
0.517652
0.897297
-1.62132
-1.96965
-2.50277
-3.2379
-3.12018
-0.778705
-2.61519
-2.36338
-1.29586
33.3549
33.2523
33.3358
33.3788
33.3681
33.3809
33.303
33.437
33.4992
33.5032
33.569
33.2825
33.4526
33.4141
33.5279
33.5096
33.3983
-4.79738
-4.83388
-4.88485
-5.17517
-5.11735
-4.887
-4.64595
-4.90845
-5.03587
-5.36671
-4.66583
-4.24466
31.4868
31.301
31.8469
31.848
31.6077
31.5502
31.2188
31.4326
31.647
31.8137
31.8526
31.4828
31.3292
31.4458
31.241
31.445
31.2435
31.5047
31.5711
31.2317
31.4729
25.1367
24.7003
24.7977
25.2121
25.2437
24.4095
24.7918
26.4298
26.5964
26.3813
25.6982
25.3354
24.9768
24.9186
24.938
25.6313
25.5131
25.5257
10.0846
10.3422
10.4283
10.0118
10.2722
10.979
10.6229
10.6656
10.4067
11.5684
11.4015
11.6473
11.4786
10.5457
10.2747
51.3639
46.2918
40.4617
41.8815
48.2184
46.3191
57.7857
43.1468
50.0041
44.8985
57.3457
57.1539
52.8723
46.1285
-0.495473
-0.150871
-0.740971
-1.30623
-1.1837
-1.46361
-0.534693
-0.693958
-0.885009
-0.595873
-1.36961
-0.957241
-0.627237
-0.131792
-0.315844
-0.824452
26.9732
24.9179
26.5575
24.7576
24.4221
24.8116
25.134
25.1877
26.043
26.4462
28.9031
28.393
27.4115
29.7275
30.3137
27.7306
28.7627
32.6599
32.6235
32.2245
32.3213
32.4269
32.4748
32.6955
32.7309
32.1931
32.3081
32.6419
32.6722
32.6266
32.5088
32.4637
32.63
32.4386
-9.83254
-7.63038
-7.69995
-10.67
-6.74784
-11.878
-17.0684
-6.90005
-9.4549
-10.3868
-9.46861
-8.86859
-9.72064
-7.25058
-15.633
-15.6341
-12.9079
-13.8145
19.9034
19.5612
21.1576
20.8298
20.1384
18.8341
19.2422
20.7815
21.2537
20.8609
20.6193
20.9191
19.2586
19.0094
18.3714
20.1508
19.0423
19.6617
18.6238
20.1233
19.4272
19.1945
-4.2762
-4.74132
-4.49156
-4.2255
-3.62932
-3.81482
-2.56166
-2.9097
-3.68195
-4.56249
-4.08081
-3.94139
-2.97812
-2.92235
-2.93674
-2.92264
-3.84375
-4.36953
-3.81879
-3.83701
-4.24868
-4.12449
-3.95772
-4.21125
-4.46247
-4.23123
-4.37995
-3.66319
-3.71035
-3.63729
-3.76731
-3.75914
-4.3842
-4.29994
-4.30829
-4.04772
-3.67993
-4.13937
-4.62298
-4.4662
-4.52477
-4.68678
-4.90868
-4.94209
-4.4575
-4.80731
-4.47365
-4.61367
-4.3687
-4.81543
-4.05315
-4.36951
-4.17032
-4.87294
-4.52065
-4.17323
-4.87552
-6.71636
-7.1659
-7.01696
-8.46333
-5.7021
-4.4679
-7.53147
-7.40992
-2.63377
-3.2742
-1.08051
-4.45211
-2.09303
-4.65865
-4.14664
-5.97045
-5.52973
-3.97075
-3.52638
-0.266053
-2.38367
-0.957894
8.28214
6.65581
5.9908
6.47994
7.08737
8.67297
8.55585
7.49702
6.77624
5.93327
6.33735
6.4907
6.12347
7.16402
7.02628
8.10159
6.88715
6.14992
6.80707
-7.10458
-6.67143
-6.88841
-6.923
-7.04261
-7.09903
-7.26999
-7.57156
-7.09941
-7.65514
-7.16402
-7.0131
-7.04558
-6.97841
-7.0322
-7.00965
-7.04921
-3.12728
-3.329
-4.77373
-4.2705
-4.0604
-4.32977
-4.55001
-4.22668
-3.61564
-4.43543
-3.81812
-4.45278
-4.11301
-4.17626
-4.08495
-4.75427
-4.91704
-5.17062
-3.7642
-4.48505
-3.70458
-4.71294
-4.33944
-4.55036
-4.63588
-3.27809
-4.4847
-4.347
-4.0476
-3.85122
-4.92221
-0.208192
-0.457705
-0.20349
-0.0371592
-0.13501
-0.238895
-0.328743
-0.34555
-0.00850439
-0.200087
-0.445637
-0.400272
-0.600592
-0.580602
-0.15866
-0.304205
-0.669857
-0.569135
-0.579771
-0.559316
-0.254027
-0.0656301
-0.772306
-0.109011
-0.317427
-0.294093
-0.591046
-0.717589
-0.347606
-0.424059
-0.280626
-0.00305422
-0.0434424
-0.331931
-0.693755
-0.322084
-0.278577
-0.670557
-0.112713
-0.308424
-11.1445
-12.2584
-15.13
-15.8095
-15.6947
-16.3762
-12.1596
-13.259
-13.8634
-9.86374
-12.0248
-12.6607
-14.8242
-14.0702
-14.0677
-12.5842
-12.3817
1.14419
1.15228
0.754294
2.04992
1.39885
0.521179
0.252259
2.11808
1.8256
0.862511
-8.17654
-8.10077
-8.40339
-8.63409
-7.94101
-7.90418
-8.29297
-8.61085
-8.66925
-8.409
-8.19144
-8.0335
-7.90229
-7.98938
-7.79008
-8.22658
-8.04286
-8.21474
-6.8326
-6.82704
-6.93953
-6.62656
-7.03951
-6.67188
-6.80723
-6.60039
-6.30499
-6.3646
-7.05201
-7.15555
-6.8266
-0.648061
-0.353514
-0.815532
-0.46046
-1.00448
-1.26801
-0.906153
-0.272681
-0.240269
-0.718421
-1.06353
-0.914899
-0.217743
-0.174855
-7.59726
-7.56484
-7.90582
-7.73939
-7.63704
-7.63275
-7.85761
-7.78097
-7.78923
-7.8346
-7.85536
-8.04736
-7.88188
-7.67141
-8.29694
-19.0209
-18.3362
-18.0543
-17.89
-17.263
-16.8306
-19.831
-19.0014
-18.8349
-19.2763
-19.9184
-19.6664
-17.7174
-17.6822
-18.1126
-18.1784
-18.4643
-19.1689
32.1896
32.1857
32.4438
31.7862
31.9015
31.8631
31.9718
31.7912
32.1144
32.0912
-7.23559
-7.29327
-7.2808
-7.51794
-7.18827
-7.49774
-7.15999
-7.24759
-7.05272
-7.13632
-7.16772
-7.44939
-7.51971
-7.286
-7.53913
-7.15991
-7.27811
-7.32476
-7.12686
-7.29752
-7.364
-7.30912
-4.08849
-3.88798
-4.08578
-3.87465
-3.7353
-3.67301
-3.49304
-3.67111
-3.42584
-3.53553
-3.32444
-3.3211
-3.26404
-3.50828
-3.28874
-3.27816
-3.1305
-3.48013
33.8639
34.8303
36.1033
34.7985
33.3604
35.8482
34.0332
34.9786
31.2863
33.1395
34.7153
31.8962
32.23
30.9884
29.7062
32.8107
30.6113
29.4806
30.5565
34.0374
31.8773
30.918
28.328
33.6449
34.3617
35.79
35.2293
39.6842
38.9038
36.1077
38.7197
31.8975
31.1704
39.5198
40.5501
37.1221
39.86
33.24
33.354
33.4131
33.2259
33.3285
33.2241
33.3973
33.3537
33.204
33.3272
33.152
33.1904
33.4046
33.3463
33.3474
33.4005
32.8026
28.6637
28.2458
30.6179
31.7175
33.5508
31.4582
31.5378
27.8696
27.1961
31.9365
29.7337
31.3241
28.5787
30.6954
28.407
28.1507
29.4967
30.0812
28.901
29.5852
30.7368
30.5854
29.8369
29.1089
30.7473
31.165
30.6734
25.2907
24.8245
27.0803
28.4344
16.5445
15.524
25.6466
25.4714
16.2766
18.4914
21.0651
20.9457
22.6897
20.174
17.69
15.5984
31.0516
30.2073
30.5675
31.0812
30.2827
31.6063
31.2032
30.4051
30.4252
33.2764
32.8437
32.5272
31.9752
30.8507
31.9843
31.4207
32.4856
31.871
31.2121
32.7653
10.7772
12.6112
7.29838
4.3477
5.51916
8.39965
15.7686
7.40794
11.2827
11.2478
4.94572
9.96909
10.7186
7.59372
10.5641
17.2192
17.2962
15.7357
13.776
12.1091
21.0799
18.2041
18.2824
15.4672
19.4306
19.4956
19.5439
16.8894
15.4457
16.5045
16.6266
17.4082
17.7233
32.5811
32.6236
32.4434
32.3379
32.9904
32.9603
32.5485
32.391
33.1376
33.1495
32.601
32.8816
33.1316
33.0998
32.9994
-9.23991
-8.98433
-9.47167
-9.42873
-9.92406
-8.85534
-8.7342
-10.5989
-10.2185
34.8013
33.9275
32.9148
32.8553
33.6018
32.9684
35.2077
32.6683
36.4299
34.9823
32.7698
34.6285
35.2713
35.6408
36.1012
31.879
32.1864
33.9694
36.1454
34.8148
32.3759
33.2545
7.15658
7.86013
7.16034
5.28766
6.2984
7.18013
4.03058
5.26896
5.58188
3.45236
4.66137
2.72895
3.50355
2.38969
1.9499
2.80201
4.02924
5.58614
1.63639
4.48159
31.382
29.6791
34.441
29.8633
31.7713
38.155
35.4003
31.5942
35.3252
30.9734
33.4445
39.3331
37.1612
37.8736
41.2813
34.5978
33.8226
32.1014
36.584
30.5704
33.7632
31.4514
35.4064
39.8032
40.6996
38.8389
-7.35243
-8.29251
-7.86848
-7.37094
-7.6186
-8.26417
-7.78907
-7.43872
-8.76897
-7.41359
-7.67579
-8.13958
-7.52178
-7.17399
-7.07707
-7.49383
-7.39914
-8.10695
-7.58274
-7.00202
-7.03291
-7.07758
-7.04996
-7.56201
-7.13643
-7.481
-4.4914
-4.24326
-4.93075
-5.40094
-4.40028
-4.63807
-4.32583
-3.17906
-5.0722
-2.49322
-5.02419
-3.90774
-3.41052
-4.12767
-5.03697
-4.983
-4.38217
-4.20454
13.1335
12.6259
9.15591
11.2114
9.81644
7.83555
4.56505
9.33471
9.59774
7.15475
2.20761
6.01637
7.41521
28.6928
29.4789
29.822
28.448
30.1094
29.8884
30.2714
29.4008
29.5365
28.5143
28.7104
30.5983
29.9575
-10.7136
-10.535
-11.5076
-10.9051
-10.9051
-11.5339
-12.8163
-12.2666
-13.8262
-11.658
-11.8504
-11.4563
-12.8914
-9.50521
-8.17712
-8.0204
-8.48445
-8.74018
-9.16195
-9.10475
-9.36059
-8.15676
-8.1995
-8.75332
-8.17529
-7.78869
-8.36903
-8.29411
-7.42445
-7.14063
-7.37919
-7.42757
-7.48742
-7.28285
-7.2021
-7.21748
-7.03369
-7.35175
-7.33551
-7.54269
-7.4696
-7.39709
-7.12536
-7.24012
-7.74534
-7.40159
-7.4481
-7.31762
-7.35467
-7.24669
-7.26099
-7.62348
-7.3527
-7.26095
-7.42421
-7.40487
-7.38599
-7.93361
-4.48087
-5.75727
-5.79165
-4.54576
-5.29826
-5.63578
-6.27363
-4.34366
-4.39173
-4.95415
-4.98055
26.1875
27.8044
26.8848
28.0002
27.248
28.1681
27.2688
26.5054
27.5993
26.7128
28.135
25.8832
27.4311
36.2441
39.0978
41.3911
49.7221
47.4987
35.9986
53.0727
52.2794
39.3918
45.0935
37.6024
39.8307
47.9657
51.8799
54.6993
43.1214
44.9739
41.583
51.343
49.3062
47.5244
44.5153
37.0099
37.0037
36.9887
35.69
35.3954
34.1283
34.5276
35.0794
34.3109
33.3383
33.4225
23.1164
22.4494
22.1268
21.7254
24.2521
23.7385
21.9814
23.4327
22.5895
21.6521
20.8655
21.1591
22.9226
24.3282
24.5141
21.6639
21.1111
23.4752
20.5417
34.717
35.008
34.884
34.8769
35.6222
35.4558
35.2373
35.0579
35.0559
35.4591
36.2216
35.9171
36.3542
-5.58485
-1.48795
0.897952
-2.97266
-0.929487
2.7067
2.51164
3.25146
3.99563
-0.55491
1.77794
-5.67982
-8.93122
-0.553049
2.78364
-3.6214
-1.36504
-9.38862
-4.58714
-10.1688
-3.21952
-7.18712
-7.05734
-7.11881
-7.2341
-6.86457
-6.99726
-7.11763
-7.48476
-7.01714
-6.85516
-7.39912
-7.17023
-6.99547
-7.00791
-7.00278
-7.03426
-6.71406
-6.98305
-8.7781
-10.1225
-7.97678
-7.98383
-7.64478
-9.31798
-8.34508
-8.31383
-7.83101
-8.32914
-9.4951
-11.4728
-9.14159
-8.93066
-7.69569
-5.95034
-7.48505
-7.05895
-6.39133
-7.80602
-9.31402
-7.13034
-5.60962
-6.50341
-5.91571
-7.67486
-6.37902
-2.83172
-3.24618
-3.50187
-3.36604
-3.70859
-11.6832
-13.7834
-12.3617
-13.6884
-18.2381
-11.5557
-15.3879
-18.8002
-18.1564
-22.5815
-24.1103
-20.5845
-20.0213
-20.8372
-15.9091
-2.20041
-2.4227
-2.26599
-3.28056
-3.02503
-2.64589
-2.83613
-2.75663
-2.94657
-2.02086
-1.49349
-3.09327
-2.86614
-2.15912
-1.07323
-2.0513
-2.96663
-2.42476
19.4221
17.4705
13.5663
20.5105
7.89864
-2.41888
19.7267
10.1213
18.7018
12.742
14.1978
-15.3136
-7.1957
-25.594
8.28876
7.79847
4.68791
-4.70021
1.99657
6.81927
-17.1664
-16.7474
-16.8151
-15.2874
-15.68
-14.5339
-14.4048
-14.2185
-15.6262
-15.8501
-13.8237
-14.4987
-15.0109
-14.0924
-10.0268
-8.29625
-9.07334
-10.8497
-6.41755
-7.13809
-8.61313
-10.9545
-8.4125
-8.02036
-10.845
-9.61815
-5.66189
-6.36249
-5.60888
-6.20818
-6.27184
-6.55962
-4.40273
-5.45641
-4.59004
-7.23203
-10.7092
-5.90652
-11.854
-10.0436
-11.9034
-11.2306
-1.42745
-2.03994
-1.75878
-3.82526
-6.1562
-6.73739
-8.59694
-8.69997
-3.13043
-6.24813
-3.61682
-3.78727
0.282652
-1.35853
-1.66859
-1.42897
2.1176
1.8337
0.864236
3.87963
3.92185
0.365634
-1.92494
0.885866
1.9996
3.6271
4.19653
-0.347373
2.04791
1.75883
0.270921
1.42657
14.3794
15.0049
12.0822
12.5127
15.0559
13.2218
12.7378
13.3343
13.8341
13.3353
12.2831
12.9
13.0246
12.0829
14.9121
-9.19362
-6.04214
-6.75478
-8.3102
-9.52252
-8.58138
-5.9495
-8.82599
-4.4537
-4.08371
-4.81839
-4.7656
-4.83198
-5.19206
-5.16164
-4.42679
-5.12442
-5.25283
-4.66439
-5.42745
-6.51873
-6.1048
-4.88978
-4.97577
-6.1855
-6.02863
-6.18656
-5.27137
-5.9269
-4.80645
-5.3112
-4.4063
-5.73406
-5.32796
-5.87694
-5.12313
-4.84912
-5.47345
-7.63243
-7.3742
-7.90609
-7.6563
-7.45683
-7.88438
-8.50172
-9.79318
-9.14268
-8.49987
-8.12765
-8.81744
-8.75985
-9.58609
-9.1048
-8.28466
-8.72399
-9.04061
-1.40426
-1.22187
-1.21179
-1.38578
-1.52575
-1.57241
-1.19217
-1.23268
-1.53301
-1.58789
-1.38501
-1.69455
-2.05145
-2.07832
-1.27296
-1.72441
-1.55147
-1.39073
-2.06997
-1.93963
-1.55713
-1.34993
35.4593
35.1034
35.5808
35.2118
34.6414
35.3104
35.8253
34.7099
34.8382
34.7354
34.1619
33.8599
34.0818
35.0801
34.5848
34.3371
-14.4282
-13.7661
-13.4826
-14.1841
-14.9157
-14.0537
-12.1006
-12.4667
-11.5758
-13.9941
-12.4823
-12.1933
-13.4386
-11.8731
-14.7274
-13.3349
-14.1017
-15.4764
-4.3474
-4.29505
-3.79942
-3.68772
-4.1109
-4.09154
-4.26914
-3.73252
-3.79172
-3.51612
-4.45263
-4.49049
-4.07645
-4.54631
-3.96714
-4.44063
11.3562
12.0811
13.7849
12.2047
10.8748
13.0979
11.5335
13.547
14.0542
12.2616
12.775
12.4048
12.169
13.7749
11.6518
10.333
11.6714
10.1053
10.5194
11.5395
7.249
5.49106
2.88423
2.61897
1.24496
1.1099
5.05897
0.00653503
10.8741
9.58877
-1.60168
4.37536
9.22674
7.78649
1.42672
5.04719
-9.64327
-9.52671
-9.20439
-8.9145
-8.78897
-8.97756
-8.87599
-8.8807
-8.64479
-7.79852
-7.77195
-8.09567
-3.34723
-3.24764
-3.38557
-2.99103
-3.13353
-3.38186
-3.47864
-3.50833
-2.87872
-2.99625
-3.19982
-3.06504
-3.52424
-3.10465
-2.87914
-3.03143
-3.31452
-7.56075
-7.75166
-7.38455
-7.40172
-7.44632
-7.83441
-7.74336
-7.34808
-7.69227
-7.41544
-7.40119
-7.57769
-7.89566
-8.13502
-7.44595
-7.76769
-8.17813
-7.35067
-3.07734
-4.76878
-4.04481
-3.35293
-4.86332
-4.5822
-2.84876
-3.4926
-4.95666
-2.10745
-1.91622
-2.90734
-2.29822
-3.06414
-2.18186
-2.41921
-2.83564
-3.06602
-4.164
-3.58161
-5.52838
-5.41528
-2.63042
-2.79283
-4.47541
-4.18608
-3.09942
-3.54714
-5.05
-4.93078
-3.64575
-3.39475
16.3372
15.9991
10.4914
13.3598
15.2491
16.0667
15.9133
14.5937
11.6845
14.5854
11.4281
13.9738
13.842
12.3775
35.8033
35.43
34.3203
34.5268
34.5449
34.8922
35.5542
35.2569
34.2307
34.4488
34.3176
35.0173
34.8336
35.3831
-1.4146
-1.28904
-1.7921
-1.72753
-1.6676
-1.84156
-1.53931
-1.68145
-1.5592
-1.79852
-1.90126
-1.73903
-1.39816
-1.57495
-1.88525
6.79901
7.23806
9.93489
9.97286
6.68984
7.89776
7.95774
8.46413
9.69373
9.95935
5.86704
6.14555
6.66705
7.28453
8.54062
7.09784
7.92845
-7.38886
-6.94762
-6.88252
-7.05304
-8.48727
-7.67695
-6.7075
-7.43134
-7.63804
-8.48645
-7.07322
-7.36498
-7.45954
-7.515
-6.48945
-6.19879
-7.13035
-8.45519
-7.62262
-6.77678
-7.72373
-6.27614
-7.48225
-6.57306
-6.60928
-7.14392
-8.39969
-9.15395
-7.41604
-7.08748
-7.10547
-8.29212
-7.77099
-7.82234
-7.85794
-8.30609
-7.55962
-6.19271
-6.24311
-6.16617
-6.26304
-5.9948
-6.03524
-5.89884
-6.02031
-5.87122
-5.59844
-5.7727
-5.80661
-5.7499
-6.06845
-5.66865
-5.73253
-8.01091
-8.03856
-8.14503
-8.18847
-7.56179
-8.21191
-7.41381
-8.18212
-8.06236
-7.87653
-7.60561
-7.50159
-6.76277
-7.15266
-6.92702
-7.57605
-7.71731
-7.6691
14.995
15.0302
14.0108
13.6622
10.8798
9.07586
16.017
15.2064
8.25427
16.1897
13.7019
12.3085
9.71916
12.4349
14.601
15.2425
13.925
10.0506
11.3049
10.8881
8.9141
8.90364
10.1797
10.8606
9.5992
12.4523
12.3056
12.4537
10.8302
12.206
11.3592
9.90931
29.4197
28.7934
28.0973
29.1346
30.3688
29.0441
30.5781
30.6023
29.1402
28.3914
27.4812
29.0365
27.8946
31.7251
30.7127
-4.57913
-4.31419
-4.06721
-3.49763
-4.75567
-4.20401
-3.63118
-3.46234
-4.08821
-3.73905
-4.1965
-3.22704
-3.48882
-2.86478
-3.06574
-3.64498
-6.2881
-6.14667
-6.87635
-6.13523
-5.93092
-5.94678
-4.27119
-5.95676
-6.01497
-6.61427
-4.25891
-4.97997
-5.76857
-24.484
-18.0056
-16.3084
-10.4944
-24.4553
-29.8795
-5.74067
-13.2203
-9.83472
-15.4051
-16.887
-21.6025
-18.9925
29.2277
28.1107
32.1106
29.4163
30.7862
32.3386
30.296
27.5853
25.4368
26.6804
29.3686
30.8971
29.8498
21.4471
23.3497
29.7338
29.2476
23.0876
21.5635
24.1551
10.2864
10.1528
9.94261
9.05246
10.0282
9.41565
9.10341
9.76978
10.0697
10.0169
9.58357
10.3649
10.1524
9.72759
-2.45115
-2.08621
-2.24702
-2.48968
-2.11896
-2.5117
-2.64301
-2.75588
-2.49463
-2.61077
-2.74246
-2.96428
-2.69963
-2.15296
-2.25709
-2.03017
-1.96005
-2.49192
-8.42538
-8.32209
-7.81002
-8.15094
-9.14988
-9.23743
-8.37603
-8.75074
-8.48839
-8.74617
-7.41883
-7.9716
-9.09419
-7.50013
-8.21653
-8.00661
-8.52408
-8.42019
-8.47533
-8.19883
-3.39217
-2.96249
-2.69785
-3.02064
-3.03166
-7.57501
-7.26838
-8.87702
-8.52684
-7.64499
-8.34391
-7.4497
-7.6909
-7.78583
-8.2471
-7.27171
-8.13109
-7.54836
-7.28265
-7.94513
-7.6546
-8.05732
-7.54255
-7.92646
-6.99152
-8.49997
-8.35236
-7.82631
-8.44852
-8.04774
13.7905
14.1422
14.166
13.8497
13.2773
13.1424
13.583
14.0377
14.5931
14.5867
14.0001
32.6624
33.3102
31.7284
31.6305
32.4759
33.7431
34.3353
32.6954
32.5242
34.9701
33.8547
36.5894
32.6903
32.0009
33.8376
14.9814
14.2021
11.2588
12.6282
12.0808
13.4608
11.7744
10.3299
10.5303
11.8284
13.5006
12.5692
13.942
10.7048
11.1797
12.6237
9.05582
9.07911
11.1121
8.62857
7.34196
25.5598
26.5655
26.0019
24.9878
25.4682
24.8211
22.2375
21.2632
19.6263
20.1928
20.5245
20.3707
23.3196
23.3413
21.3313
21.9498
24.2321
40.7233
42.8793
43.3038
40.7611
39.8885
41.6052
40.8326
41.5363
42.8688
40.1286
43.8022
40.6068
39.6343
46.2972
44.8897
44.7745
41.4431
44.4839
45.4522
41.886
0.924334
1.65977
5.36584
4.22538
10.7422
1.46838
2.9657
8.18495
6.24447
8.71673
13.9774
13.3766
8.12099
11.6077
-9.11913
-9.04689
-8.96186
-8.82279
-9.06648
-9.13638
-8.87843
-8.85931
-8.95239
-8.69352
-8.78191
-8.70593
-8.72937
-8.6271
-7.0062
-6.69097
-6.62043
-6.95794
-6.5156
-6.95762
-6.5615
-7.05259
-6.78196
-6.9139
-6.78485
-0.153758
-0.138362
-0.391265
-0.439023
-0.833987
-0.167909
0.0349575
-0.428869
-0.209467
-0.497948
0.0657403
0.0737713
-0.151418
0.0617918
-0.701243
-5.56974
-5.64992
-5.68112
-5.8124
-5.65406
-5.85747
-6.01469
-5.74165
-5.90259
-6.3992
-6.44262
-6.26792
-6.27606
-5.89075
-5.69195
-5.75706
-5.87943
-5.76392
-7.45577
-10.5211
-7.15911
-8.58564
-7.2414
-10.2114
-8.66797
-7.69498
-6.42303
-7.41374
-9.30815
-6.17475
-8.11386
-8.81824
-8.09986
-9.18439
-7.62013
-8.2255
-5.27729
-8.2234
-7.46945
41.5711
45.2329
43.8662
45.6911
41.488
45.6669
46.7772
44.1025
47.9771
49.7291
46.2017
38.1557
38.9264
43.4908
38.7747
4.5538
4.91505
2.92946
3.34455
5.2427
3.43728
5.73633
4.06236
3.98296
3.44665
23.2651
23.2202
23.8807
23.8891
22.4449
23.6988
24.2819
24.1564
24.1952
24.1189
21.6171
22.1555
21.8992
22.4387
22.0973
-13.985
-13.4827
-15.8477
-15.3423
-13.9518
-14.5
-14.6671
-16.9939
-15.9983
-17.0656
-17.2463
-15.2067