/*--------------------------------*- C++ -*----------------------------------*\
  =========                 |
  \\      /  F ield         | OpenFOAM: The Open Source CFD Toolbox
   \\    /   O peration     | Website:  https://openfoam.org
    \\  /    A nd           | Version:  10
     \\/     M anipulation  |
\*---------------------------------------------------------------------------*/
FoamFile
{
    format      ascii;
    class       surfaceScalarField;
    location    "19";
    object      phi;
}
// * * * * * * * * * * * * * * * * * * * * * * * * * * * * * * * * * * * * * //

dimensions      [0 3 -1 0 0 0 0];

internalField   nonuniform List<scalar> 
146459
(
-2.05857
2.66698
-1.50664
0.898227
0.781323
-1.31718
-1.52271
-3.19602
4.95239
0.910608
-1.18199
-1.23271
-2.03656
-0.9992
1.70389
1.33187
-0.249722
-1.78683
1.75636
-2.34477
-0.728775
6.40469
3.21291
-8.21561
-1.40199
-1.93988
3.38132
4.96325
0.0910471
-2.32982
0.88472
0.445896
-2.58939
-1.52726
2.78132
1.48472
-25.7256
47.7299
-24.7393
2.73508
-27.9716
20.3187
-18.0728
28.2743
10.6678
-16.9207
-22.0215
55.1793
10.3579
-37.2629
-13.9533
-23.3755
9.35716
21.3039
-6.75922
-3.87686
52.7015
23.7818
-19.6847
-1.02781
-28.4134
-35.2413
40.2792
-10.4429
12.5035
-30.4741
-38.6228
8.49511
41.5649
-9.56696
-19.4944
10.0441
6.25507
25.2658
9.62669
23.9216
-3.97637
-29.572
0.272505
24.0355
-14.6813
16.8642
7.04349
0.0139056
-10.1856
9.77978
17.2701
20.0958
-18.2606
5.20837
-11.6601
22.8055
8.95027
29.4053
-17.5798
32.3609
-44.1864
15.315
3.90462
-9.29195
23.8284
-14.2639
-30.8482
17.2808
-11.506
-3.8746
9.49533
-25.9437
24.1034
17.1554
-10.1185
16.5357
34.9937
4.02115
-14.9114
10.0768
9.87696
-3.60123
-4.17148
0.899394
6.87332
-6.1972
-3.69654
6.29251
7.18961
-6.5663
-4.79479
0.447518
4.37912
2.36297
7.53113
3.57489
-10.6585
-18.4449
-17.8526
21.2779
15.0196
-18.1661
22.062
-3.69538
-0.200505
-4.97361
-0.472816
-12.7197
-15.9302
-1.16236
-1.35226
-11.7697
-5.6785
10.7638
6.68434
-4.09471
17.3747
8.78202
-16.1536
-2.92815
15.3863
-15.0917
-6.03546
-24.2388
4.71155
15.4325
-17.4298
-7.28179
2.64152
-17.5132
-2.98097
-9.12816
10.1411
-11.1081
-21.826
-11.6175
-8.36315
-2.29341
18.0818
-7.4252
-8.15168
-0.748709
0.537241
-11.69
21.5999
-12.2033
-8.44315
0.696696
-0.40523
9.33828
-1.08186
1.16848
-9.4249
-5.41136
6.3065
3.13737
8.9777
-8.92563
-3.18945
-5.61249
8.74986
11.0239
0.416069
-12.5218
-0.797982
1.51311
8.26257
-0.351391
-11.3055
12.8254
1.27993
-9.78949
-13.8718
1.38388
-12.9433
0.0652347
-1.41568
0.496539
0.853904
-0.76074
-0.123103
0.949077
-0.388969
-0.600431
0.22866
-0.0726101
-0.181341
-1.16173
0.525473
-0.721186
-0.00148292
-0.94871
1.44673
-0.751325
0.360874
1.53499
0.396985
-0.547732
-1.38424
0.185674
0.673526
0.67579
-0.681637
0.26688
0.156226
-0.440877
-1.84997
-0.23434
1.1356
-0.804628
-1.22669
0.407203
-0.318407
-0.323136
-0.187896
0.12586
-1.40076
0.470275
-0.740279
-4.1974
10.3589
6.83851
-13
-1.96542
-17.3171
5.61031
13.6722
-16.4118
10.249
-9.88666
-23.8423
-6.45013
16.1309
-9.68075
-12.3241
13.8412
4.09319
7.91285
-24.2148
6.41529
-10.8614
9.01585
-6.41731
2.46319
-5.06174
-0.616202
5.58672
4.04534
0.13758
-1.26042
-5.29447
7.9584
-1.61447
-6.20636
12.1909
4.96784
-9.20031
6.44632
5.12835
-6.90961
9.3728
0.327641
6.91392
-8.50198
-9.55532
8.26849
13.2406
-8.2728
0.00431039
-6.54074
0.867639
-6.3009
11.974
-8.99385
-4.62204
7.07515
6.04747
-7.00318
9.86323
-8.90752
0.150469
5.897
-7.50444
-7.40556
15.7776
-0.30231
-9.27527
0.583733
-6.60322
-4.18156
-10.6568
7.33394
-10.7614
1.95785
-0.0512141
-8.67441
-2.03583
-7.63628
-1.6902
-4.54955
6.45275
-9.53947
5.49608
-17.0488
10.7683
-0.341116
-0.563996
9.25978
9.99935
-13.1777
-0.998589
4.42171
12.9105
-9.91129
-7.4209
10.6864
0.440287
-6.70499
4.43756
19.1593
6.52544
-12.0495
10.664
-5.13994
-9.95398
20.917
6.22076
4.92532
-23.1574
12.0114
4.72309
-10.5518
5.23089
-10.2169
16.8844
7.0431
-15.5102
-8.41728
-5.66538
16.3003
6.24944
12.224
-3.93969
-13.9497
9.46059
-0.400074
-2.01741
6.80076
18.9602
-2.23635
10.8886
-9.05231
11.0926
3.21386
-2.08249
24.0147
-6.12127
-6.54637
-7.80574
-2.09107
16.4432
-12.9257
-9.04011
15.4194
0.0287002
-7.83444
-12.92
0.0229692
-1.16019
-24.5909
16.7109
6.57835
-19.6771
11.9386
-8.07823
12.5655
-20.5209
-10.1623
22.605
12.5988
-27.9232
-5.19652
2.43652
-3.14024
-18.7201
-2.73047
-12.4298
-3.63039
-5.39792
-24.6224
-13.7748
-10.9106
-6.91712
11.7157
-0.942974
-3.30037
-7.4724
-5.34217
0.12702
5.0183
0.196853
5.55742
-13.4203
2.52067
-9.41862
8.55956
0.986074
8.9999
-12.8611
-1.48209
4.03285
9.16499
-13.4985
4.69455
7.32188
-0.950356
-2.42877
-10.1194
7.44023
-3.3649
11.1967
-3.14715
7.0195
12.7368
1.29346
10.1796
13.0075
0.0968513
-6.23973
8.28543
-2.14255
-8.47734
11.3288
-2.75465
1.33016
-16.0472
-15.2803
-1.37698
13.7506
2.90671
11.9469
-25.897
10.5699
16.9047
7.78293
-16.4022
-7.58422
8.55634
15.9326
0.198705
1.20021
9.23243
0.896191
11.685
3.26586
-0.0265271
17.8153
-10.7686
22.427
-5.82133
5.24178
10.3746
-9.79506
-8.01629
4.55889
-2.36392
-16.9223
5.51348
3.39251
-6.127
-9.34854
20.7173
5.87938
-7.44749
-4.05416
-5.29438
-3.85786
1.65192
-16.8044
19.0103
20.6222
-21.3331
-3.14697
3.9893
13.2262
3.40671
16.405
-1.73861
-13.0145
5.34676
18.8923
-7.83403
5.82234
11.8646
-13.6977
15.4272
3.94284
-19.2458
-0.124278
-2.0996
17.5268
-13.626
15.8302
-1.38286
20.7423
-14.0127
19.3141
-14.8746
0.821833
6.12597
9.70686
-16.6547
4.46716
6.81339
-10.4587
8.27979
7.17173
-10.9844
-2.92877
17.8228
-6.61421
11.5806
-8.3834
0.0516516
6.76174
9.75851
7.62622
-12.4289
9.43497
-4.63233
-2.55083
15.645
-5.46793
0.16171
7.01002
0.992768
-1.84102
10.7513
6.92345
15.1239
11.8782
10.0882
-4.90258
-17.0638
-4.52445
8.80805
7.59458
5.56372
-12.2256
0.6837
18.0592
-6.51732
-6.8074
3.38983
-6.30999
11.8737
-16.6028
-4.86186
12.3498
9.1149
11.1718
-6.7635
-21.0112
15.7073
-9.0699
-15.3869
8.7495
1.63934
7.87343
6.19453
-6.01729
18.5747
-20.736
7.97186
7.1742
2.49992
-17.1653
7.49116
6.52346
11.5703
-10.9196
-5.88165
-17.5702
6.06372
17.3881
-21.1192
3.66322
11.5744
-4.92742
-6.1181
-10.0737
-14.9021
-7.59551
5.64018
7.06545
-10.2057
12.1636
11.6348
-0.0864269
0.0219384
1.36236
-5.09775
-6.70923
10.4446
-8.9332
16.3593
-11.7085
10.2739
12.576
-11.6286
-3.9852
6.6868
-10.6944
-1.46921
2.33672
-4.96616
-11.3472
9.60202
6.71136
-10.0448
5.07868
9.229
-2.19635
8.72925
-15.7619
-0.815841
7.62019
-16.2677
6.45118
7.08023
2.10722
-1.56725
-0.694773
-7.34836
0.294691
7.74844
-9.06941
-1.28993
9.66457
14.247
0.360619
-3.64651
-10.9611
14.9878
-9.81023
-2.25734
-1.08397
-0.280074
-6.0654
0.503369
5.84211
-8.9634
8.68333
-3.94226
-6.79541
7.41092
3.32675
8.3266
-12.2689
-8.79346
-0.169942
12.2836
1.06941
0.44801
-13.801
-0.155222
12.4388
0.896699
-8.62075
8.59405
0.8703
-9.01634
9.14421
-0.705376
1.082
-7.8322
0.684795
3.4308
-6.0652
-10.7745
7.90705
-12.9647
15.8322
-10.5919
-0.182571
-4.76119
17.6505
-4.98224
7.31818
-7.6226
-9.37176
9.67617
-3.8071
11.1253
6.11825
11.1236
-10.1784
-7.06344
-4.47367
8.28078
-5.36646
-10.5369
-3.1553
1.31416
7.13384
13.8252
-17.2492
-3.70989
-11.6799
14.0525
3.58524
-19.1301
-13.5909
-1.24422
-19.4055
9.39984
-0.945779
4.83008
-5.5093
1.62501
-8.27797
7.33219
-7.02533
0.337919
-4.5972
-5.22642
-1.79891
-7.42579
9.96883
2.04028
-20.2871
3.47186
0.987659
-5.32003
0.0936053
-9.32425
6.0445
-1.71621
0.958685
-2.78143
-0.302291
-1.41392
2.37978
-0.8346
-3.4617
1.91652
1.50204
0.265861
0.611882
0.815323
0.598763
-2.24869
-0.323254
1.13858
-1.97351
2.04072
-0.390465
2.50429
-3.87903
0.836287
-1.33047
1.58382
1.78737
1.58421
-0.410388
-2.10507
-0.606281
0.981178
0.194804
-0.144116
-0.933558
0.88287
0.104373
0.3295
-0.239069
0.599263
0.101996
-0.937852
0.236593
0.275083
0.575103
-0.250922
0.156267
-0.181347
0.300162
0.0353042
0.120963
0.0458164
0.000561792
-0.190494
0.759961
0.738207
-1.39617
0.557357
0.306977
-0.773511
1.37668
-6.40836
6.12005
-18.1353
18.4236
-22.1127
2.93329
12.771
-2.51595
-10.6145
-8.98225
17.7593
-11.3965
-8.87875
11.4152
-5.93502
12.2791
-4.60924
14.7505
-4.02121
9.73927
10.5997
-2.47693
-19.5193
4.66469
-16.483
-0.755993
-0.896337
-7.81071
-19.2867
12.4369
-6.82593
7.27425
-12.8852
12.6687
-0.987781
-2.20473
6.86942
-17.1136
-5.06952
8.73685
9.00136
-1.05146
0.00336554
0.981936
0.066162
1.68695
-0.343563
-2.39485
1.69032
0.067998
1.55693
-1.96849
-1.36395
-2.32861
-0.988915
4.68147
-0.122187
-1.20762
-0.0341395
-2.45079
0.127621
1.15005
-1.20967
-0.0980679
0.79645
0.760476
0.957587
-13.9499
13.5216
-13.7341
14.1625
2.29204
-3.17586
-13.0661
3.37455
11.5411
-20.0544
5.13877
5.59261
13.616
-15.834
-5.25765
7.54968
12.3531
-6.41553
-0.344932
-0.26628
-0.0506279
12.67
0.154854
13.4611
11.6959
13.1948
6.43826
-7.08892
-16.5762
13.721
9.94408
-12.6102
5.5322
-0.0108892
-2.68023
-4.49038
-9.40554
-5.19914
-10.0913
8.10264
-8.21264
5.6422
-3.66624
14.3129
-12.4572
3.85427
-5.70998
-9.21134
16.3864
7.13783
-7.64209
-6.05964
-16.3493
-3.75005
10.9335
-7.07924
-10.8122
-4.78399
7.38356
-11.0139
-4.99741
-11.8632
-1.02344
-1.35813
-0.188238
2.56981
1.20499
-0.671502
0.35452
-0.888005
-0.960633
0.412539
0.78291
-0.234816
-0.90925
0.899197
0.0100536
-0.161248
-0.748002
-6.42296
0.623405
19.5343
-13.7347
4.6148
-11.4785
0.44071
-13.1067
-5.99849
19.7286
-10.5244
-5.7273
3.14497
14.0163
-10.9804
-15.651
12.6151
15.4394
-7.42153
-24.2793
2.77453
1.36315
2.81471
-5.4182
1.24033
3.67225
-4.40803
2.09893
6.62952
-5.96089
-4.92249
4.25385
0.609052
5.56442
0.456051
0.521659
2.9021
0.722449
3.47146
1.1778
-5.1735
-1.4225
-3.01032
-0.219914
-0.473773
-3.87604
5.4905
-1.14069
-1.74279
1.99146
0.839055
0.225699
-6.23825
1.10745
-3.27872
-2.67815
-6.54055
5.34266
-5.64283
1.22189
1.18041
-6.9156
-0.849907
-0.806647
-4.884
-5.38528
-3.70654
4.0803
-7.88823
-5.1939
5.42093
7.6612
-0.813943
-2.37395
-4.70033
8.3665
-4.27662
-4.90383
-4.64558
5.03152
7.98056
8.42447
-4.20824
-8.49285
-0.487379
4.26628
9.79648
-3.55338
-8.61705
1.4363
3.16627
10.636
-0.183502
-7.62116
3.42724
-1.05478
-10.7746
-11.6201
7.01199
2.88603
-6.37222
1.70446
5.35612
-7.81577
0.755196
-6.13053
3.97214
3.86285
-14.5387
-0.366579
8.00263
6.90268
-5.2365
-0.876134
-8.4261
8.39455
-1.39703
-3.04563
-3.95189
-5.08559
7.34961
-10.1418
4.68958
-5.31933
-10.0589
2.38866
-3.10967
6.07713
-2.65843
9.01923
8.5047
-4.27316
-5.62857
-1.95775
2.64667
-11.9234
3.94438
0.062343
7.91663
-5.60348
-7.19601
9.28858
-1.4685
-6.89645
6.54885
-2.71687
-8.10514
4.19743
0.39368
-5.01108
1.72762
3.3458
-4.84215
-5.7724
2.81537
-9.02752
-15.1422
12.5944
15.4049
-12.857
-2.59219
-17.5493
8.66684
11.4746
-26.7102
10.0733
14.0447
9.00185
-13.4304
-13.1207
-9.9369
-7.77142
0.540748
-12.2959
-1.21158
12.9667
-1.02731
11.3702
-9.80213
12.8644
-13.6911
-0.20058
-11.3587
10.0793
9.9463
0.634674
-1.63958
-14.1373
-16.2237
15.5678
10.7292
9.73578
-11.796
15.9231
-12.9956
-0.988289
2.20745
-2.50809
-1.43703
17.9025
-14.258
-0.146104
-2.09742
2.07503
0.168491
-0.218418
0.0723136
-2.22896
-1.41221
0.221054
3.42012
-2.44738
-8.56448
-2.37478
5.97235
4.96691
0.251622
-1.53586
-7.28024
3.44195
-2.30183
-3.5875
-0.11021
2.13994
-6.795
3.94494
0.475277
-1.14777
-5.3956
0.300401
-0.502853
0.274765
-2.94479
-0.165086
2.46117
-4.34054
-0.377786
6.23992
3.40207
3.9108
8.45756
-15.3423
2.97397
8.66501
-11.9552
7.20103
-18.7908
-5.702
11.4936
12.9991
-15.9587
0.104967
-2.93707
-6.47083
-12.2308
17.1864
1.51519
8.35685
-4.83687
-9.99081
7.7961
-7.49765
8.15911
-0.191573
16.6527
-9.39658
-1.52364
-1.03502
-16.3821
11.0937
8.66069
-24.5913
14.9785
-16.1155
7.53901
-14.837
0.313376
17.8186
-2.73509
10.5191
-5.11162
12.4111
21.8212
4.57713
3.90446
-7.11313
-5.40837
12.4484
5.47285
-8.25124
-9.66999
3.71236
4.8722
3.86383
8.69511
-3.3058
-1.48485
3.42473
8.43665
-1.24369
-3.72899
8.3974
-2.5963
4.23864
-5.05579
-12.9368
6.37243
7.54289
-9.54926
5.71873
9.13713
-2.19625
-1.46803
6.97806
7.03126
2.89558
1.48618
6.70948
-10.2181
-2.63693
-0.908863
-17.5605
-13.0778
-4.05838
2.0885
23.5314
-21.5615
-17.4721
0.196224
13.2175
-15.4766
-3.63674
1.6412
-1.81101
-12.8001
16.6996
-8.62922
7.01444
-7.41788
-11.5238
3.46514
11.2921
-4.53356
-14.4741
7.71555
18.2943
3.13184
-10.134
-7.68416
13.1783
7.71246
9.78078
-6.85182
-10.6414
15.016
-7.60928
0.30577
-19.5836
8.48999
3.4095
-6.67102
-14.2732
14.1339
-2.89394
-4.64426
-10.3829
-16.0296
-10.2856
6.64221
6.08957
-2.44615
7.72123
-12.9688
-5.03802
-10.4066
13.3404
3.03198
-5.96575
11.563
-16.5304
-5.43932
3.00807
0.0520281
8.50293
12.5529
3.79563
-14.0042
14.2922
6.35428
0.0926824
-6.3757
7.64169
16.2423
-17.7519
-6.13208
14.7554
-7.02106
12.0242
-2.90262
1.97557
10.7578
-0.180525
16.3652
-4.89934
4.77646
15.6679
15.4527
1.58256
12.4172
0.947522
16.5857
-1.86536
16.8223
-8.05427
-7.21952
2.90766
12.3661
-9.23425
-2.63367
3.81364
0.685084
-10.6636
0.744235
11.4348
-12.2707
1.52095
5.60243
-9.72084
1.48474
-0.208692
4.424
5.69527
9.88675
-9.97959
-5.89445
14.4974
-5.89926
-2.84155
-0.980029
3.3319
-7.69304
-1.53812
2.54936
-9.88102
-1.47504
-8.2463
-4.21224
2.9976
-4.67981
-3.8749
2.63032
8.78453
-7.53996
3.16154
-3.7929
-3.24354
-2.15021
5.08607
-5.77742
-7.78056
3.35963
-6.09406
-12.3148
27.1931
-7.1688
-7.70942
5.132
-16.7013
-0.745572
5.6231
22.5738
-23.0649
-0.787569
30.4569
-6.49012
-23.1792
7.506
14.3849
-35.0327
13.1418
22.2048
-17.3693
5.09087
20.1353
1.96684
21.0568
6.60789
-2.22318
18.8225
4.45745
17.6584
2.32321
16.229
21.7339
-8.11473
-8.7598
35.6971
25.7727
28.7482
-17.3727
8.01812
-2.19023
-10.3681
4.54022
-10.618
16.949
1.68708
-12.5699
4.20645
-1.46722
9.83065
-5.3585
-12.9247
19.8943
-1.61117
14.7476
-6.56508
-13.541
-1.56752
3.74526
-11.1962
3.62904
5.37696
19.6781
-19.4586
-10.5876
-9.95521
19.0153
-7.1531
4.79737
0.78821
-2.41774
-11.3004
-5.31863
-1.08024
-3.63394
-6.12393
-9.70076
-16.4629
8.7488
-2.2411
-7.78543
-12.3114
-4.45863
-6.98393
-2.84349
-10.8833
5.9414
-9.71986
4.04526
0.356492
1.67538
-7.17564
3.80662
7.41428
1.02597
0.817621
4.52504
-0.0796795
-1.62999
3.56667
1.31486
-3.22572
-0.881895
7.91423
-3.58237
1.38262
8.00922
-4.75233
-0.916469
-2.34042
2.81583
7.61422
-2.42083
-1.48621
6.86298
-1.15677
5.50061
-0.812285
-11.8863
-2.42771
15.1263
-8.72854
10.0827
-2.16647
-13.742
6.61706
-2.21476
9.33975
-1.65933
-0.0391971
-7.03002
-2.5342
-11.0114
-10.0003
9.87734
-2.30473
-11.7403
-2.04029
11.624
2.15659
-5.60934
-19.873
-3.52815
0.144896
-6.48646
5.80556
10.8667
-10.1858
-19.8651
-0.459096
13.8377
-6.9019
7.92419
-15.1127
14.0904
7.22354
-19.7348
-12.1476
-3.03238
11.6518
-5.75757
-6.18335
-10.6816
0.229293
13.971
-3.97273
-10.2276
17.9004
-4.95003
-12.7211
-5.7772
16.4985
3.24966
16.2918
-4.16856
-2.99509
11.8132
-13.7681
2.65372
8.35111
-13.9999
-0.52938
-12.6774
1.64342
11.5633
-7.39134
-0.0281574
6.89012
-2.03285
6.45466
7.54715
6.71177
7.48269
16.563
8.55041
-9.86941
2.62751
-6.95377
-5.78458
8.61583
4.65145
-14.0289
-2.62178
10.8661
-2.85093
22.2007
0.205175
-4.94698
-17.4589
13.9098
-1.36008
9.65093
5.154
-11.4366
20.1924
-3.79507
17.6009
-8.11825
-5.68758
21.1531
-12.1371
-12.8112
-22.6082
29.2986
-6.48531
-5.47664
-13.1685
-3.96305
-7.87879
-1.67915
14.7119
-13.4776
4.2387
-8.59385
9.68479
16.51
5.89263
6.66667
-16.1263
8.54132
-5.43956
-19.0772
8.39047
2.25559
-19.8322
5.74349
-11.6061
0.455419
17.4066
-17.1885
6.86695
10.7769
-16.9216
14.8726
29.834
-25.8301
-22.8533
18.8494
-1.90633
16.09
15.6503
-4.27685
27.3823
-10.8027
-12.3028
12.4803
-24.2962
29.7995
-17.9835
-16.7384
3.38855
15.3808
-32.3101
15.023
7.07543
10.3841
-41.7558
-20.1952
10.5322
-14.3924
25.4963
-0.526112
14.1146
16.3672
-29.9556
-12.3135
9.80292
29.2186
-26.702
7.86747
-27.0925
12.174
-10.1874
46.4428
-28.8942
-2.88434
-14.6643
25.3661
30.9549
-9.87812
-21.5678
28.8827
-20.5377
13.2228
-37.9033
-12.5586
47.7138
6.53492
-5.33666
-31.5253
-1.04141
13.1683
8.75893
-42.4649
-19.9041
-20.6529
25.8155
14.7415
-15.8004
3.1409
-7.2446
24.528
-30.931
26.0089
-19.6059
26.9553
10.7409
-4.18137
-27.3286
26.1733
-1.95854
-34.9961
6.0236
-24.9745
0.343487
3.97807
-23.447
-17.3279
21.8339
4.51858
32.0847
16.7045
-29.5869
3.95903
9.1089
-1.58106
-11.4869
-11.9944
11.4708
4.48264
5.72312
-12.8123
-4.90525
-8.73038
14.7184
2.15208
-8.14009
11.2966
-16.5862
-3.44076
-4.51914
-2.46004
18.45
-3.73147
8.32124
-1.06323
5.64435
10.1373
6.50186
11.3986
-3.52337
14.5829
-6.90331
-0.647666
2.87462
4.67635
-4.21896
0.210057
-2.89441
2.35171
-1.7437
-4.82696
0.726771
0.97727
-0.578052
2.37648
-1.07166
2.67809
-1.29426
-1.96188
-1.51223
1.57523
2.31349
1.44142
-0.275551
-5.22213
1.9203
6.17645
-2.96906
-2.04302
0.478015
1.64249
-3.86421
2.85207
-1.47585
0.314165
-1.69039
0.745567
0.850513
1.25599
1.67944
-2.49569
-1.82876
1.39829
1.17603
-1.62516
0.977532
1.86217
1.55062
-2.87718
-4.09403
2.65093
2.29361
-2.22925
4.91385
-0.34262
-9.52379
-10.3351
24.1671
-4.30821
-15.223
-18.1279
23.8271
5.89042
7.82915
-0.129658
-13.5899
-0.226452
-9.10608
6.47766
-8.98358
-12.8608
1.97442
25.281
-14.3947
-0.907622
12.2139
-6.42651
16.4807
-10.2807
8.45859
-15.0148
8.33027
-16.6979
7.45996
-6.22638
-7.27558
15.4764
-9.11685
11.2207
7.88399
5.68103
2.9157
-4.17497
-6.04522
7.46267
-16.8251
0.245606
8.07109
-12.5415
5.97052
-3.75235
-2.14741
-0.0707601
-1.19012
8.41418
-1.25354
-1.137
2.4543
-5.89872
4.58142
1.18314
-4.39895
2.07881
7.4002
-8.06229
-3.09025
8.66437
3.81636
-2.37587
-4.79601
3.35552
2.10704
2.89246
-1.00979
-1.03443
-3.8545
-3.51743
-1.89132
-6.27685
0.38355
10.2888
6.93867
-3.69178
-13.5357
-1.87071
5.65366
6.50583
3.02408
2.04389
7.41675
-1.51791
-2.87477
2.62479
5.41879
-11.7354
-10.9906
3.05062
15.3567
-1.47453
0.150938
-9.66699
4.62537
-7.37897
5.37838
8.62009
3.07089
-6.27219
4.05645
10.2173
9.5798
-10.0941
-0.960242
16.6869
-2.39782
19.0466
15.0106
0.483872
-34.5411
-0.0475146
26.488
-7.39384
-41.7214
10.2243
16.0848
15.4123
2.38752
-14.7359
-29.373
43.0991
-12.3363
-28.3753
28.7055
24.6178
43.1354
-40.4611
2.72505
28.7918
11.6185
-12.0525
16.5965
-4.59144
9.72728
-21.2959
-28.4527
21.9677
9.21003
14.1848
-16.1496
18.35
-23.3586
14.102
43.3954
12.0655
11.6602
-5.37566
20.934
7.21626
-17.6048
9.02738
30.5451
-9.48078
6.06082
-13.1127
11.2834
22.7633
-3.85228
2.39973
3.26341
34.4128
4.94557
6.84202
-27.3194
15.5318
10.7308
26.8492
-32.6345
0.487012
19.8986
-13.5436
32.1893
-20.9715
37.0444
-16.1234
5.9282
46.8336
3.05284
-22.2104
-27.676
22.3354
18.0652
-20.502
23.7204
32.1774
-23.7085
46.2982
-0.242389
1.29074
30.1967
15.3461
-45.347
15.4774
31.1603
-18.4095
18.1636
-45.1011
33.8291
-12.7111
-3.29585
15.2087
20.2646
18.8189
24.1835
12.6369
-4.83605
26.0283
11.0326
20.4231
-18.5862
32.2877
1.77599
19.2067
-0.571768
15.8291
-0.592331
16.6961
-3.68666
-12.4171
-4.96457
20.5564
-16.1842
-2.4315
20.7666
-23.2997
12.8395
1.45857
-16.7296
5.51743
13.7057
-2.52703
21.363
4.71085
-5.42127
14.3572
3.90357
18.2951
-2.94979
13.0163
-15.2444
-17.6278
-13.9469
10.192
21.3828
2.62693
-19.655
-0.599743
16.1321
4.04216
-1.617
13.7069
15.2535
0.846126
5.26337
16.2497
-22.8884
-1.61679
3.91956
0.0598155
14.1743
2.92921
10.7073
13.7292
5.41209
9.56122
3.17919
-7.12366
10.1127
16.1667
-5.08648
8.25909
-8.41976
5.24716
0.0189183
-3.89437
-1.21103
-10.2295
8.89414
-7.48352
8.81887
-3.26763
-12.5371
5.57522
-6.47724
10.582
4.78937
-4.96757
-1.49075
-6.35759
1.95279
-8.04353
12.4483
4.72094
-0.49652
-2.58246
9.2562
-6.94134
12.618
-12.6022
5.44982
-1.26737
-9.62768
-6.8689
-9.46466
1.22946
7.21129
-0.694459
-1.23249
-5.28434
17.6026
-18.4349
-5.84892
4.35741
-0.59722
-5.94616
8.43488
-6.70612
-7.48779
5.75904
3.75559
1.79351
2.88578
-8.9098
-10.7061
6.83935
12.7765
1.85957
4.40466
-12.9703
7.55543
-14.6057
-9.62613
6.30103
-6.6069
9.932
5.62831
-7.699
-7.668
3.10643
1.9595
2.60206
9.05312
-12.3165
7.05715
4.97438
-2.97841
4.91893
5.24465
1.89818
5.68964
-8.97513
10.2329
3.66117
-0.245164
-5.22185
-3.08999
16.3721
-8.06025
-26.5308
1.06808
14.0749
11.3878
-1.65586
-26.2679
1.39294
-16.0428
-2.53996
13.3609
7.93152
-0.852611
-23.1217
-20.5679
9.91749
11.7185
0.116101
-22.3399
-5.43017
12.2577
-17.9198
9.94967
-19.236
1.43228
18.4479
2.20095
0.775806
-21.4247
7.76795
11.9272
-1.24721
-6.86153
-4.75274
6.16212
5.45215
-13.7883
-8.44602
15.3728
-13.0489
13.5988
7.21808
1.93212
-12.7801
-13.454
11.5929
2.05936
-14.7376
-4.72409
18.688
-0.365144
-3.59798
-18.1715
17.0167
-24.4524
2.99716
17.8573
-2.01223
-26.0677
3.62752
-20.8836
0.699857
-16.6997
14.9727
3.26796
-22.0922
0.266255
-23.066
-14.5013
-17.3961
4.09032
13.8815
-0.575749
-8.28609
5.36137
-14.4714
-1.52632
6.56992
4.8906
-9.9342
12.371
5.93072
-19.8281
1.21757
11.0459
0.107555
7.17982
0.607664
18.7212
9.15372
-15.4993
-12.3755
11.9696
7.82356
-1.07199
-16.7633
10.8554
17.8775
-5.40115
-2.20847
9.2689
-12.6644
11.1493
2.20995
6.77161
-3.92547
2.51523
16.2154
4.43776
-14.9148
5.34622
-10.5039
4.22687
17.1324
-4.85908
13.505
4.82411
9.19401
16.2838
-9.26239
26.9259
5.12924
10.1138
0.629595
-15.8727
10.3246
-11.7508
6.55538
-4.71449
1.16184
13.8773
-2.81123
8.21057
3.50299
-0.367069
-14.8867
-8.71034
-3.37657
13.2487
8.44615
-4.0788
2.64569
-7.01303
5.65003
8.01961
-4.32263
-9.34701
11.4904
2.78224
-8.62258
0.726078
12.1111
-4.81762
13.212
-4.03975
-7.59742
2.39007
2.60203
6.0771
-10.4972
9.72266
-6.67864
8.29258
-1.06408
6.07009
0.658338
-4.65503
-2.0734
1.37174
2.88146
1.81689
-3.48102
2.2215
2.63126
-0.881891
-1.94079
4.12312
6.87082
-8.11249
-2.07063
7.69788
-3.40574
-3.56079
9.07049
-2.82414
-2.68556
2.01107
-5.18782
-0.384034
3.05181
-1.70041
-2.23328
-5.2438
6.22498
3.08843
2.1827
3.79936
-6.29037
4.13499
-5.97971
-6.94183
-4.85684
4.70625
7.09242
-9.07869
0.994845
1.14201
-2.28499
-3.04173
0.469874
6.80861
-8.46321
-0.630385
5.71603
-8.62994
9.72252
-6.56508
16.9874
-4.48799
-7.63243
7.19002
-8.82863
2.63346
-5.45861
6.08355
-8.25404
-0.103975
-0.105204
-4.05833
-10.0302
-9.06453
0.101313
0.134585
13.4389
-0.360311
-11.3609
-1.71773
16.4849
15.6725
-19.8389
-12.3186
4.0419
10.8899
1.55313
12.097
5.38378
14.4062
2.98482
-1.71854
13.067
12.2292
23.9366
-12.1792
-3.64604
-8.1114
0.481281
-1.9002
25.3556
-15.0489
-0.656039
16.1863
-15.1311
22.6416
-14.7244
-11.5633
-1.10624
21.8477
23.192
-17.0057
-6.46916
0.28289
0.61082
21.4749
10.8236
-13.4969
-14.3324
15.5426
-1.7341
-1.07161
13.4825
-6.46259
-14.7309
15.0818
12.7352
-0.323305
3.04182
-15.4537
1.67527
13.8296
-2.76969
21.3297
16.793
-22.9662
-15.1565
-2.7128
10.4414
13.6011
5.35247
8.72777
11.4922
2.52326
-14.3388
-1.84969
15.0172
11.951
12.32
3.26925
-23.1936
-19.237
7.11678
11.2938
0.826424
-12.7465
-0.756656
-5.73391
1.32653
16.9388
-6.31428
15.0882
-0.0300902
-11.7889
10.1289
10.3118
3.00436
-13.2276
-18.8281
4.94636
20.9986
-12.9913
-6.59349
16.4018
-10.017
-0.949335
0.902278
-0.875248
0.922306
0.726511
-2.13039
0.454544
1.73168
-1.68328
0.678113
0.369492
2.26447
-1.66986
0.14825
0.646359
-2.01129
-1.78896
0.842982
0.729603
-1.42433
0.666947
2.45521
-2.27918
-1.73575
2.77219
-0.89395
-0.579271
-0.774177
2.2474
2.01277
-1.08087
-1.82586
0.906672
-0.538044
1.64415
1.03809
-1.28932
-1.43204
0.209011
1.08628
-3.45647
-1.50428
-10.3448
14.5509
-15.4075
11.2014
7.68754
-0.144598
-17.8878
0.99741
-3.21124
9.90137
-4.47474
20.0231
-24.6308
-1.02656
5.29873
20.3586
-13.5644
-1.5095
-9.55687
1.6128
-5.25847
-11.7618
-3.23349
-15.5675
14.3263
-18.4044
14.1443
-11.959
-20.0098
18.0745
-11.1318
-8.45219
20.162
-9.9591
-3.99563
-8.27695
-0.790104
-2.06474
2.98642
-17.0059
5.74251
-18.9317
4.38448
7.27275
-11.6572
8.77977
-7.93439
3.5391
1.72144
-2.70809
8.25941
-1.17533
11.6765
1.891
-13.5482
-7.11374
1.07035
1.21876
-17.8967
1.83651
14.8414
-15.5828
2.98006
13.8215
-21.9561
19.5841
1.84014
0.531854
-2.20998
0.25982
-20.006
-3.2371
4.92454
-19.2022
0.382389
-10.5726
12.3774
-0.784073
1.18204
-7.51171
1.49488
-15.8272
-14.3864
13.5149
14.1226
-14.8377
1.57627
-1.11582
-17.8266
-10.5064
1.13202
7.22751
1.48638
-9.84591
2.419
0.213136
-13.5199
10.8878
16.7103
9.35207
-18.9744
-7.08797
-9.47969
14.7204
11.4695
-6.87179
8.92618
-2.71029
0.65591
-9.08511
2.51051
-0.297192
15.1473
2.75136
-15.4796
-6.48396
12.5461
0.751394
-4.48399
-9.8928
10.3398
-2.87088
2.42388
2.43612
-12.1158
-3.2707
8.39637
4.2264
1.50688
-18.0451
-7.22142
8.20113
-9.7964
1.10288
-3.68711
12.3806
-8.00056
-24.4848
22.689
2.32306
21.3976
-13.3931
-10.3276
-12.2042
2.32765
3.80568
6.0709
-12.8497
-15.5788
16.2242
-21.9471
1.0969
-6.94845
10.3394
16.0826
-19.4735
-3.45229
-2.39329
-7.34731
-8.83092
18.5013
-8.7763
-10.3229
11.7519
-7.21871
0.770062
0.635456
0.872976
-11.9657
2.2782
-8.53213
-10.6522
-7.47268
6.28579
-7.68726
8.87415
-10.9451
6.48417
-3.01172
0.206283
-10.9756
12.4189
-1.6495
-9.70442
-1.03442
-6.19093
-3.66236
16.1391
-6.26191
6.55514
0.243304
-16.1947
9.68947
-22.1901
8.6478
13.7856
-0.917451
6.9693
-15.7563
7.45909
-19.3522
3.84716
-13.0725
-6.78373
-11.5592
-0.295838
5.02744
-10.5738
15.5593
17.4582
-16.7829
6.58854
47.9071
-29.3068
-1.75035
-16.85
1.34906
21.672
24.8861
-33.8153
-2.82482
24.0317
12.6085
-19.9997
-43.1224
-25.7419
12.9165
14.1745
-17.389
-10.1032
-27.1328
14.1577
10.1503
-12.1973
8.97758
-23.913
0.568006
-32.765
8.68114
37.0225
10.2122
-14.8229
17.5271
-32.8619
29.2847
17.7349
-5.59333
-18.291
16.4156
9.91081
-25.7584
25.9818
-7.08842
14.1624
-15.1358
-2.70053
2.04002
19.1883
-14.8709
2.04624
14.4416
-6.77608
3.12795
-14.9879
18.636
16.0049
-18.1961
-1.45537
4.83127
-6.98898
18.1626
-11.6986
-0.398874
-10.6609
22.7584
-1.80528
-16.6694
-2.72469
22.5438
-5.50023
0.829151
-13.525
-10.3444
19.4497
-9.50419
3.12101
-15.2707
-19.5929
17.2136
2.70535
3.98652
15.7792
-22.4711
7.6808
24.9378
-29.9132
13.3622
-9.40509
10.3597
17.2376
3.53837
-1.32625
22.1937
7.86212
6.74262
-26.4007
11.2608
-16.5194
-6.11514
9.18987
8.3999
1.43948
18.7601
-8.93879
10.4387
9.77391
-13.47
-6.45904
18.3372
8.70422
3.9407
11.663
7.0348
-9.99355
-0.8999
9.68552
1.94113
2.23294
-15.2145
11.0404
15.2843
-6.6528
6.9243
-15.5558
-4.49996
-0.990231
20.7745
-12.7842
3.5023
-2.09911
11.381
4.11817
-14.9612
-4.41449
14.9263
-15.0117
-9.92333
-3.82824
12.7613
-16.596
0.0198365
21.3604
-0.929152
-9.97304
-10.4582
2.14487
2.2056
17.0099
17.6989
-9.24185
-9.38617
4.48283
15.3609
12.9275
4.01554
-12.8249
-0.166157
-0.460202
-12.7052
17.1809
-4.20531
-12.2303
15.9754
19.3917
-11.722
-17.6428
17.1829
13.8898
-13.2352
-13.6944
14.179
10.0802
-19.8543
-4.40491
-7.25266
12.1723
9.2593
6.37977
-3.55221
-15.6855
4.07813
12.2999
-0.692471
-17.463
-11.9603
13.7377
2.26036
-14.5929
18.7123
-4.46165
-11.7263
18.4483
3.69788
12.5526
14.301
-13.157
-5.60563
19.882
-9.93868
4.35769
4.4282
20.9973
-5.54358
22.9612
-14.8352
-10.0536
-2.24893
-4.37039
16.6729
-15.5556
14.9902
-9.48825
9.89697
-6.98164
-2.91533
3.4709
-0.775293
13.9118
-16.6074
0.087351
13.2805
9.24584
-4.72737
-6.7674
1.5341
6.64629
-2.38624
-5.79415
9.05924
-7.52515
2.0776
2.41603
-13.045
9.85371
-6.78515
9.28854
-8.5132
-17.792
19.5201
-6.4356
-18.6302
-15.615
16.4532
-15.5749
-9.49094
-5.40674
-3.36912
-6.83918
-14.3353
-7.16832
1.73532
11.736
1.57307
-15.0444
-17.8411
15.5089
4.0675
0.409342
-0.589925
-17.6605
-1.49654
-0.262508
17.2679
-1.51846
11.7579
6.38073
-22.9747
18.7078
-2.11385
14.0792
-12.7562
5.05773
16.6934
-3.1237
-17.4954
3.92569
17.6871
-0.99368
-18.0964
-2.1919
20.0258
-0.956474
13.5172
5.95387
-1.57421
-27.3544
-9.33571
2.53342
20.0248
-1.65008
0.333145
1.23852
17.8298
16.1895
-20.8874
-1.46191
16.6577
17.3461
-18.2995
-20.77
-19.3196
27.8253
12.2643
-5.61384
-31.1264
15.9702
9.47953
-3.03829
-25.7609
6.02641
35.0141
-13.2152
-29.8734
-10.3501
17.9081
22.3154
21.0219
-34.6072
5.47109
8.11417
-6.01592
33.0643
-30.6051
-5.09644
5.82818
-25.9145
0.786783
0.492319
-21.273
-5.13374
35.6919
-28.8357
-6.36382
25.2336
15.9294
-13.0307
32.2484
26.781
-37.9528
-1.85897
5.36977
-23.0152
-3.6276
-24.9974
1.53147
1.78317
-2.50502
-1.89852
2.62036
-0.886322
1.08312
1.58638
-0.274806
-0.00411125
-2.2261
3.03554
-0.117272
-3.19307
1.57999
-1.33209
-0.558415
0.310519
-0.950851
1.84558
0.685261
1.19837
-0.419867
-1.0295
-1.38461
6.62826
0.549508
-21.0754
13.8976
-5.61877
5.51436
6.73267
10.8756
-0.718002
4.17843
-14.3361
14.1615
6.95064
-20.5626
-12.6452
12.742
17.1081
-17.2049
-1.51709
-11.1281
-12.0258
9.86869
13.0328
-13.5429
9.97346
3.47003
13.6684
-8.85819
2.14041
-4.53794
27.1486
19.1039
0.82384
-2.91846
-14.6056
16.7002
-2.01743
-12.8535
15.6948
2.60324
1.55152
-18.4598
14.305
-15.3295
15.9153
-15.393
14.026
6.4129
-12.475
-8.54348
-6.4406
-4.24003
-16.6815
5.59204
8.24878
-4.06683
2.29575
-6.47769
-18.8626
11.7184
-2.28745
-20.642
-10.6806
-1.51809
-14.6459
-2.85679
-15.3428
1.33851
-16.101
-12.1989
13.0949
-13.5973
5.34289
-4.84051
-6.91554
7.17576
12.8347
8.44089
-2.51241
-19.5257
1.52536
9.38394
4.16806
-8.20911
19.358
-2.79832
-7.65915
9.18451
-11.538
1.54559
11.9582
-1.96578
-5.3756
-13.8216
-17.2007
9.31272
10.2293
-14.4955
-14.6784
18.9445
-0.304378
10.5337
-0.595166
10.8011
1.55687
-11.7628
2.14437
-17.235
9.40597
9.31137
-7.91623
9.10159
-0.800516
11.6648
-9.30744
15.4062
-14.0623
0.336917
13.3712
-14.0927
0.384514
4.2562
-6.93945
18.0894
-0.729671
-12.9691
12.8197
0.879103
8.37192
-3.66474
0.00696332
16.8846
-12.5831
-0.0453241
-0.221748
17.7074
-0.60104
0.624516
8.08432
13.2225
-4.58297
-18.9775
17.9376
-14.9091
15.949
-11.8339
-2.94265
-4.201
5.03436
-1.68687
14.5901
-26.7847
1.80078
10.0749
-22.8273
-15.7913
-11.8168
18.2906
-1.43945
18.5207
-14.7392
-6.72409
12.1375
4.69633
-19.935
9.9189
31.4601
-8.39895
-33.2039
10.1428
27.2664
-15.7413
19.2416
4.46693
-7.22989
-16.4787
12.8158
5.25109
1.17476
2.03316
-33.2594
-13.7653
14.0765
12.5046
-7.15784
-2.14057
16.0078
-21.2046
6.5197
12.3833
11.0443
-11.8832
-11.5444
-6.02982
14.4902
3.92295
-21.4738
4.07964
14.6029
2.79131
-9.87161
-0.557974
18.7673
-12.6296
1.80135
-7.93897
23.748
-7.08893
2.10816
11.4957
0.144123
-23.523
8.30826
-2.84235
13.6906
4.87926
11.2609
-22.5907
11.4739
6.90602
-8.27476
-17.6376
-16.857
21.1428
13.3518
1.43606
-10.7654
-8.51496
0.0682763
35.1502
-22.2475
-12.9709
32.4869
-11.9221
-20.4965
5.22516
15.7205
14.2044
18.1232
19.5889
-21.5103
-6.38641
5.64917
11.196
13.0056
-8.48104
-11.0186
2.273
12.7283
-3.98269
-11.5196
-1.88088
2.38186
16.6708
-4.6873
-12.8879
0.904409
11.3716
-6.22044
-15.7535
17.2385
6.10686
-7.59185
6.757
-20.6379
-1.87261
-1.95048
15.4195
-4.96895