/*--------------------------------*- C++ -*----------------------------------*\
  =========                 |
  \\      /  F ield         | OpenFOAM: The Open Source CFD Toolbox
   \\    /   O peration     | Website:  https://openfoam.org
    \\  /    A nd           | Version:  10
     \\/     M anipulation  |
\*---------------------------------------------------------------------------*/
FoamFile
{
    format      ascii;
    class       volVectorField;
    location    "19";
    object      U;
}
// * * * * * * * * * * * * * * * * * * * * * * * * * * * * * * * * * * * * * //

dimensions      [0 1 -1 0 0 0 0];

internalField   nonuniform List<vector> 
75457
(
(5.0925 0.654771 -0.806329)
(5.23946 -0.193869 -1.04544)
(7.14793 0.77245 -0.65963)
(9.24459 0.337961 -1.0375)
(3.85173 2.00465 -0.0134008)
(3.9487 2.19632 -0.211175)
(5.47251 0.338567 -0.564867)
(5.20906 1.31965 -1.03322)
(10.1371 0.0348566 -1.24604)
(9.95034 0.263668 -1.05738)
(10.1465 0.447054 -1.01379)
(4.14429 1.53264 0.115218)
(4.18799 1.2943 -0.360462)
(8.82685 0.630136 -0.511151)
(12.0358 -0.350294 -0.040349)
(12.1243 -0.350803 -0.027017)
(12.4741 -0.426542 -0.215595)
(12.2517 -0.449101 -0.266177)
(12.2022 -0.388248 -0.0593287)
(12.4875 -0.369031 -0.144229)
(12.3026 -0.422158 -0.22631)
(12.3774 -0.41835 -0.0835757)
(12.0913 -0.379111 -0.0479235)
(12.0834 -0.388472 -0.0845655)
(12.3517 -0.442611 -0.0718769)
(11.8467 -0.42934 -0.231521)
(11.8027 -0.454635 -0.254677)
(11.3608 -0.762175 0.362747)
(11.193 -0.787851 0.497152)
(11.3241 -0.765948 0.336412)
(11.4981 -0.703562 0.312862)
(11.1247 -0.770732 0.432538)
(11.1355 -0.760536 0.451524)
(11.7734 -0.563915 0.356326)
(11.7548 -0.550724 0.320494)
(11.9245 -0.553507 0.559177)
(11.832 -0.602675 0.397568)
(11.0767 -0.790439 0.511098)
(11.2084 -0.773413 0.511509)
(11.818 -0.51263 0.363734)
(11.8425 -0.514079 0.389106)
(11.8287 -0.548797 0.396216)
(11.8935 -0.614669 0.556358)
(12.7251 0.74257 0.586906)
(12.4791 0.770378 0.527354)
(12.9019 0.695813 0.559942)
(12.9148 0.680377 0.585068)
(12.6952 0.741742 0.577417)
(12.4239 0.430601 0.125835)
(12.6352 0.587184 0.199976)
(12.6322 0.593943 0.180378)
(12.4853 0.447724 0.169064)
(12.1971 0.488969 0.0404866)
(12.5661 0.581856 0.178684)
(12.6912 0.537908 0.246305)
(12.6855 0.534327 0.215766)
(12.2701 0.587054 0.119735)
(12.2858 0.581386 0.100697)
(12.378 0.422344 0.0825645)
(12.1544 0.46944 0.0288083)
(12.2302 0.538304 0.0815075)
(12.4558 0.438669 0.128371)
(9.92767 0.0568811 -0.29209)
(9.93584 0.0671387 -0.316364)
(10.1212 0.0907263 -0.248089)
(9.92095 0.0624822 -0.286405)
(9.94505 0.0571406 -0.267853)
(9.89339 0.0360952 -0.264225)
(9.91171 0.0423365 -0.20397)
(9.804 0.0286868 -0.225978)
(9.82145 0.00948491 -0.223837)
(9.76622 0.0030264 -0.23571)
(9.94284 0.0498395 -0.212151)
(10.117 0.091912 -0.248041)
(9.92404 0.049265 -0.191282)
(10.0953 0.0823864 -0.217807)
(10.0856 0.0739937 -0.206317)
(0.782035 0.98222 0.523015)
(-0.978903 1.33177 -0.637185)
(-0.767019 1.1585 -0.533615)
(1.847 1.22188 0.713837)
(-0.824196 1.60184 -0.182718)
(0.763177 0.771275 0.275742)
(-0.246306 0.693161 -0.107948)
(-0.519015 1.26973 -0.282175)
(-0.790068 1.44075 -0.626411)
(-0.229219 1.07564 -0.683405)
(0.00900536 0.899005 -0.722197)
(1.83838 0.883919 0.0796047)
(2.22556 1.1501 0.466883)
(0.415459 0.671852 -0.020951)
(-0.164418 0.654952 -0.281029)
(1.00313 1.281 0.778409)
(-0.352278 1.0009 0.198681)
(12.5628 -0.279594 -0.0143684)
(12.9442 -0.285593 -0.015818)
(12.9439 -0.288751 -0.015301)
(12.9631 -0.288854 -0.010382)
(12.345 -0.277786 -0.0167172)
(12.5984 -0.276515 -0.0160998)
(12.595 -0.28784 0.00772025)
(12.4561 -0.268122 -0.0149627)
(10.0177 -0.00988241 -0.019411)
(10.028 -0.00912894 -0.0162249)
(10.0211 -0.0148752 -0.0218964)
(10.0214 -0.0194398 -0.0153688)
(10.0125 -0.0174115 -0.00652479)
(10.0241 -0.0172809 -0.00561713)
(9.85578 0.000760064 -0.0203081)
(9.93384 -0.0144341 -0.0148487)
(9.94537 -0.0181597 -0.0109699)
(9.90257 -0.0188535 -0.00151955)
(9.87138 -0.0257829 -0.0229248)
(10.7601 0.115177 0.0671427)
(10.7964 0.138611 0.187576)
(10.3938 0.0974972 0.113006)
(10.3833 0.0319815 0.0383148)
(10.7747 0.0869931 0.20515)
(10.6479 0.151474 0.116302)
(10.5483 0.201952 -0.0211973)
(10.8621 0.10684 0.268571)
(10.8545 0.131552 0.277563)
(10.751 0.129469 0.271303)
(10.5545 0.153677 0.127617)
(10.456 0.126273 0.0898513)
(10.5007 0.123478 0.142187)
(10.5538 0.166321 0.0564106)
(10.4993 0.0935143 0.150822)
(10.5388 0.0578852 0.0825396)
(10.6387 0.117324 0.229321)
(10.7333 0.115927 0.246597)
(11.3294 0.00550264 0.380876)
(11.4017 0.07911 0.330797)
(11.4042 0.0555394 0.362147)
(11.3312 0.0332249 0.324918)
(11.3278 0.018964 0.316706)
(11.3172 0.0793801 0.334541)
(11.2483 0.0377441 0.312981)
(11.2547 0.0275261 0.360288)
(11.2038 -0.00801804 0.331891)
(11.9595 0.0350154 0.189999)
(11.9666 0.020772 0.210852)
(11.8574 0.0139733 0.244985)
(11.9706 0.0301566 0.159333)
(12.004 0.0185963 0.179846)
(11.7013 0.0252406 0.122763)
(11.8746 0.00453898 0.253073)
(11.9085 -0.00599672 0.216627)
(12.8557 0.0429031 0.0101202)
(12.9486 0.0588066 0.0435077)
(12.7165 0.0233826 -0.0540977)
(12.7375 0.0930169 0.0246646)
(13.1519 0.0497738 0.144204)
(13.0951 0.0930592 0.188744)
(12.9145 0.0567645 0.0854381)
(12.7466 0.0889504 0.0221655)
(12.7148 0.0761503 0.0701624)
(12.6552 0.0749981 -0.000331646)
(13.0726 0.0849467 0.175745)
(12.7403 0.0920925 0.0342478)
(12.7568 0.0370748 -0.00457669)
(13.0542 0.0844323 0.217266)
(12.6719 0.0820736 0.0686172)
(11.542 1.08523 0.910135)
(11.2965 1.24344 0.899976)
(11.2076 1.30788 0.860765)
(11.3982 1.21777 0.813509)
(11.2637 1.1116 0.77331)
(11.7391 0.947646 0.877977)
(11.5779 0.758775 0.570659)
(11.4534 0.884184 0.698271)
(11.5817 1.27476 1.03988)
(11.4638 0.959844 0.676341)
(11.5686 1.07582 0.714254)
(11.8335 1.14698 0.917369)
(11.6602 0.935707 0.619575)
(12.9941 -0.0699978 -0.0698704)
(13.1176 -0.0301342 -0.0860553)
(13.0123 -0.00607459 -0.037003)
(12.8336 -0.0348307 -0.0116094)
(12.8621 -0.0138544 0.000731245)
(12.7259 -0.020771 -0.0400696)
(12.9638 -0.0704817 -0.0367808)
(12.9043 -0.081278 -0.0132503)
(12.764 -0.088788 -0.000280492)
(13.1106 -0.0357424 -0.0994081)
(12.8522 -0.0379298 -0.0297036)
(12.9955 -0.0631611 -0.0557713)
(12.7502 -0.0340009 -0.0149036)
(12.7059 -0.0267158 0.00112281)
(9.95199 -0.0934986 -0.746863)
(9.38147 -0.265271 -0.913079)
(9.21751 -0.0869762 -1.01157)
(8.52607 -0.140078 -0.824071)
(7.94314 -0.235355 -0.905735)
(8.36114 -0.109743 -0.888783)
(11.6551 0.442078 -0.65716)
(11.5004 0.285813 -0.497051)
(11.5794 0.265395 -0.473249)
(11.6781 0.335747 -0.505045)
(11.7923 0.358032 -0.515125)
(11.4327 0.239943 -0.219669)
(11.2795 0.36994 -0.146168)
(11.3294 0.363526 -0.117712)
(11.462 0.407499 -0.248421)
(11.7127 0.415062 -0.261124)
(11.5554 0.337287 -0.067304)
(11.9072 -0.00238602 -0.0979813)
(11.9569 -0.0164466 -0.0405435)
(12.0017 -0.024322 -0.0365879)
(12.2212 -0.048903 -0.0624392)
(12.1411 -0.000281629 -0.115487)
(11.8154 -0.0131334 -0.0582004)
(11.8214 0.0453082 -0.0838355)
(12.1309 0.000487012 -0.129887)
(12.0198 -0.00393633 -0.0818983)
(11.8949 -0.0332146 -0.024631)
(12.1241 0.00336907 -0.126912)
(11.7858 0.0147614 -0.0914322)
(11.7487 0.00362008 -0.0162179)
(11.7649 -0.00228639 -0.0424055)
(11.7824 0.462345 -0.02862)
(11.8537 0.481297 0.0128901)
(11.6862 0.46041 -0.0230239)
(12.031 0.433536 0.000380073)
(11.8891 0.420225 0.0416862)
(11.7885 0.512595 -0.0306817)
(11.8622 0.515621 -0.00776543)
(11.8208 0.551673 -0.0527534)
(11.7236 0.541881 -0.0261589)
(12.1203 0.502384 -0.0767133)
(12.1578 0.481649 -0.0667691)
(11.9075 0.515368 -0.0173278)
(11.8795 0.514585 -0.0360995)
(11.9438 0.512833 -0.00251565)
(12.2492 0.00274829 -0.271214)
(12.0309 -0.00159583 -0.296478)
(12.4313 -0.0559208 -0.274346)
(12.381 -0.0396408 -0.21852)
(12.397 -0.0541909 -0.217433)
(12.4534 -0.059713 -0.285117)
(12.1696 -0.00751518 -0.222069)
(12.0333 0.0221973 -0.260571)
(12.035 -0.00556042 -0.278934)
(11.9931 -0.0102812 -0.269055)
(12.1572 -0.0261568 -0.2929)
(12.1416 -0.0157994 -0.207777)
(12.1485 -0.00977047 -0.195788)
(12.0067 -9.64518e-05 -0.284786)
(11.9591 -0.00723574 -0.268356)
(12.0786 -0.00360252 -0.204628)
(12.0378 0.0172672 -0.261137)
(10.5678 -0.0695987 0.171408)
(10.3223 0.0242311 0.08495)
(10.4265 0.0321034 0.086281)
(10.4059 0.0481766 0.0987063)
(10.6627 -0.117185 0.162198)
(10.8138 -0.145528 0.142961)
(10.7397 -0.220799 0.30213)
(11.877 -0.171534 0.313215)
(11.9444 -0.258352 0.306114)
(11.892 -0.227844 0.308111)
(10.6356 -0.0694088 0.193116)
(10.6551 -0.166789 0.209547)
(12.1039 0.296485 -0.189993)
(11.4135 0.190466 0.00550625)
(11.6649 0.135533 -0.300982)
(11.5048 -0.00382847 -0.166758)
(11.4893 0.175172 0.0192359)
(11.7118 -0.0185876 -0.175931)
(11.6258 0.0150579 -0.174777)
(11.6227 0.170605 -0.0262737)
(11.8962 0.257008 -0.414493)
(11.7793 0.240734 -0.386775)
(12.0449 0.307746 -0.207288)
(11.7845 0.242992 -0.372214)
(12.0552 0.292564 -0.188297)
(12.364 0.048917 0.145202)
(12.2934 0.0138207 0.158982)
(12.4908 0.0733987 0.17537)
(12.4151 0.00611335 0.202234)
(12.3864 -0.00711763 0.207439)
(12.3097 0.0424086 0.130526)
(12.3165 0.00976731 0.148484)
(12.3927 0.0308336 0.171464)
(12.3666 0.0115314 0.181748)
(12.394 0.0690851 0.138855)
(12.7478 0.148259 0.178579)
(12.6785 0.127259 0.171006)
(12.4046 0.0574546 0.140703)
(12.6154 0.121161 0.142468)
(12.5924 0.116793 0.138188)
(8.84199 0.25524 0.00290738)
(8.8061 0.203219 0.0266684)
(8.45436 0.0238044 -0.0672782)
(8.50304 0.0130266 -0.0637559)
(8.68873 0.20287 -0.0378924)
(8.88223 0.201854 -0.0116449)
(8.89123 0.239108 -0.0207987)
(8.66084 0.0679387 -0.0177204)
(8.736 0.106513 0.000225911)
(2.38462 -0.074427 -0.370389)
(2.27522 -0.0237917 -0.314666)
(2.47593 -0.21033 -0.357719)
(2.58647 -0.214306 -0.398247)
(2.231 -0.161464 -0.295143)
(2.08288 -0.047393 -0.321982)
(2.16835 -0.128037 -0.432501)
(2.30204 -0.252766 -0.403455)
(2.20154 -0.0762275 -0.356605)
(2.36571 -0.185565 -0.465291)
(2.58074 -0.251847 -0.450571)
(2.52432 -0.183093 -0.41807)
(2.64849 -0.254947 -0.429764)
(1.2747 0.150397 0.126498)
(-0.246117 -0.0811965 0.146605)
(-0.519483 -0.161808 -0.693476)
(-0.12705 -0.0748433 -0.579832)
(-0.293928 -0.0850965 -0.5547)
(-0.222897 -0.128995 -0.0654695)
(-0.105387 -0.273563 0.00478352)
(-0.924808 -0.0487866 -0.615011)
(-1.09377 0.025464 -0.321469)
(-1.27519 -0.00809965 -0.210495)
(-1.10026 0.0112978 -0.341343)
(12.5779 0.168189 0.153313)
(12.6822 0.211677 0.165019)
(12.6885 0.220897 0.153947)
(12.4085 0.264431 0.0701084)
(12.3393 0.255511 0.0541344)
(12.4 0.186526 0.0869445)
(12.4111 0.234724 0.0761535)
(12.3384 0.23525 0.0579014)
(12.2657 0.227739 0.0573209)
(12.5554 0.149111 0.143361)
(12.5963 0.168933 0.128852)
(12.1317 0.103902 0.0458009)
(12.1171 0.100428 0.0737158)
(12.1579 0.167685 0.0179199)
(12.304 0.172268 0.0848281)
(12.0888 0.0981963 0.0567287)
(12.0751 0.0973208 0.0331648)
(-1.35526 -0.0848939 -0.647616)
(-1.0105 -0.639937 -0.347195)
(-1.15679 -0.250889 -0.513032)
(-1.15922 -1.19394 -0.0709504)
(-2.44757 -0.0233619 0.0408422)
(-2.09729 -0.109479 0.0436398)
(-2.34966 0.138322 -0.275791)
(-1.04479 -0.896165 0.149572)
(-1.62896 -0.254603 -0.154376)
(-1.49256 -0.737475 -0.0753188)
(-1.67614 -0.68612 0.0223928)
(10.6783 0.430068 -0.00443591)
(10.8213 0.437381 -0.0195517)
(10.5799 0.283525 -0.0172879)
(10.1196 0.0878938 -0.0447086)
(10.4192 0.318422 -0.0140183)
(9.6837 0.177814 -0.166116)
(9.65824 0.160855 -0.160119)
(10.0492 0.0804673 -0.0391679)
(10.4639 0.250771 0.0445943)
(9.90278 0.00986171 -0.0280538)
(10.4415 0.256236 0.0359784)
(11.8729 0.419188 0.192647)
(11.8857 0.403112 0.154562)
(11.8704 0.440142 0.197917)
(11.8964 0.399462 0.145663)
(11.7061 0.389601 0.0914)
(11.7502 0.413372 0.137628)
(11.4826 0.496783 0.0608872)
(11.5594 0.494996 0.0928975)
(11.7111 0.481576 0.133478)
(11.6037 0.474575 0.089402)
(11.4247 0.462867 0.00460149)
(11.4777 0.479131 0.0307465)
(11.6016 0.381967 0.0634528)
(11.667 0.401034 0.0835148)
(11.5592 0.416327 0.0576528)
(2.85158 0.0512153 -0.150457)
(1.49359 -0.0131446 -0.459463)
(1.33326 0.0715748 -0.729991)
(0.516952 -0.0393855 -0.844462)
(0.545037 0.0573785 -0.758917)
(12.3438 -0.0352586 0.670701)
(12.4381 -0.0563606 0.665066)
(12.5699 -0.0692333 0.715953)
(12.5006 -0.0627208 0.711597)
(12.8161 -0.107668 0.709935)
(12.7941 -0.118166 0.726348)
(12.6124 -0.0708377 0.691357)
(7.92117 2.55432 0.0514677)
(7.47407 2.72171 -0.464627)
(8.85467 2.32467 -0.225444)
(8.71061 2.60067 -0.379562)
(7.95853 3.01524 -0.0193915)
(7.42285 3.05313 -0.55519)
(8.06399 2.29241 0.0713619)
(7.55384 2.39941 -0.553488)
(8.17663 3.07136 -1.20893)
(7.32337 3.11685 -1.27404)
(8.26333 2.17885 -0.0299891)
(7.93748 2.18687 -0.619694)
(8.25926 2.74042 -1.12117)
(7.72801 2.69922 -0.945121)
(8.92985 2.23506 -0.231276)
(8.42503 2.49301 -1.05801)
(7.86861 2.44989 -0.88566)
(8.94175 2.28727 -0.430364)
(9.61488 2.1125 -0.275735)
(9.76929 1.95226 -0.352286)
(9.57507 2.00317 -0.577355)
(9.5019 2.09667 -0.666323)
(9.51552 1.81168 -0.570862)
(9.43554 2.12391 -0.659357)
(9.5634 1.9483 -0.149815)
(9.49458 2.12193 -0.198977)
(9.41392 2.24197 -0.533093)
(8.98515 2.06369 -0.477317)
(9.2989 1.74116 -0.398692)
(9.28577 1.91303 -0.193325)
(9.00324 2.25439 -0.147987)
(10.1924 3.2461 -0.89895)
(10.5441 2.80758 -0.82987)
(10.97 2.13388 -0.301592)
(10.8844 2.02696 -0.306045)
(10.3369 2.52283 -0.812995)
(10.5622 2.51513 -0.730581)
(10.6985 2.24504 -0.452346)
(10.676 2.16866 -0.461104)
(10.4473 3.24308 -0.74541)
(10.7803 2.97052 -0.606548)
(9.94774 2.87569 -0.835087)
(10.0234 2.97109 -0.817333)
(10.7455 2.66038 -0.231313)
(10.6575 2.45966 -0.209797)
(10.9631 2.39292 -0.289919)
(10.3979 2.20421 -0.532351)
(10.0866 2.6665 -0.478897)
(10.1584 2.79614 -0.507005)
(10.4675 2.75946 -0.262591)
(10.4563 2.61862 -0.290261)
(10.3873 2.8932 -0.427183)
(10.3056 2.5525 -0.358691)
(13.1862 -0.0673546 0.381288)
(12.9724 -0.0849734 0.35542)
(13.0468 -0.126748 0.371394)
(12.9723 -0.081525 0.362766)
(13.0536 -0.125174 0.37686)
(13.2301 -0.0561771 0.394068)
(13.094 -0.0550602 0.383256)
(13.2673 -0.0977699 0.369705)
(13.0531 -0.0798524 0.358868)
(13.1949 -0.0552403 0.38463)
(13.191 -0.136171 0.370042)
(13.092 -0.0673366 0.374919)
(13.2566 -0.116678 0.366786)
(13.1113 -0.0724625 0.368442)
(13.2714 -0.125649 0.366402)
(13.2329 -0.0733912 0.37882)
(4.24376 0.200088 -0.441271)
(-1.46123 -0.0220339 -0.436219)
(2.34839 2.26854 0.387459)
(2.6364 2.61994 0.336495)
(9.80796 1.08511 -1.79719)
(9.96851 1.1954 -2.08161)
(3.95712 2.31264 -0.571692)
(4.06617 2.09633 -0.314322)
(10.5166 0.71922 -1.65188)
(10.6419 0.709498 -1.82424)
(0.530867 0.532969 0.689412)
(5.85054 0.177233 -0.817157)
(4.03584 0.995726 -0.168719)
(4.86863 2.02569 -0.331498)
(9.75132 1.251 -1.61657)
(10.6298 1.12939 -1.47571)
(12.6011 0.114074 0.311027)
(12.6547 0.160189 0.299917)
(12.5404 0.114891 0.247451)
(12.4965 0.116415 0.208879)
(12.4614 0.124546 0.219772)
(12.4743 0.115109 0.269427)
(12.5964 0.122311 0.262675)
(12.6621 0.133195 0.300447)
(12.5862 0.163622 0.30916)
(12.5434 0.102364 0.313474)
(12.4031 0.132729 0.210282)
(12.3831 0.0987858 0.159346)
(12.4387 0.120286 0.22911)
(12.4693 0.118195 0.270827)
(12.3971 0.0994917 0.151653)
(12.4656 0.10566 0.16488)
(12.5613 0.10738 0.198779)
(12.5071 0.117613 0.212621)
(9.72346 1.76748 -0.0892477)
(9.42069 1.68948 0.66027)
(9.33203 2.06274 0.828453)
(9.69973 1.93202 0.16953)
(9.59442 2.08395 0.0449392)
(9.21116 2.54101 0.293998)
(8.69638 2.73035 0.262825)
(9.34808 1.7369 -0.0832471)
(9.53496 2.08938 0.590659)
(9.00338 1.94292 0.632849)
(8.85464 2.21309 0.672316)
(8.79163 2.69003 0.384151)
(9.29454 2.4282 0.543311)
(9.71999 1.79712 0.366781)
(9.66446 1.62597 0.358954)
(9.6131 1.66497 -0.031688)
(10.569 0.665978 -0.242432)
(10.644 0.667057 -0.193448)
(10.6025 0.610233 -0.232425)
(10.6052 0.779861 -0.265758)
(10.7171 0.845794 -0.169441)
(10.5459 0.557628 -0.252371)
(10.48 0.641705 -0.322196)
(10.5183 0.732239 -0.348786)
(10.579 0.74877 -0.339008)
(10.5162 0.734652 -0.384965)
(10.5712 0.74462 -0.324981)
(10.6449 0.750007 -0.362191)
(10.5919 0.739635 -0.406778)
(10.6975 0.768419 -0.308955)
(10.6369 0.738185 -0.30229)
(10.4868 0.604853 -0.289623)
(10.4532 0.634825 -0.347978)
(11.7158 -0.0539 0.797271)
(11.7223 -0.0275294 0.76863)
(11.8385 0.121447 0.663694)
(11.8405 0.154878 0.679128)
(11.833 0.162146 0.683462)
(11.8324 0.117566 0.660178)
(11.7349 -0.0190358 0.864703)
(11.711 -0.00963062 0.892792)
(11.8346 0.287591 0.811303)
(11.827 0.379274 0.964216)
(11.7027 -0.0150717 0.722253)
(11.8436 0.120712 0.668163)
(11.8479 0.286674 0.817433)
(11.8484 0.323198 0.900241)
(11.7104 0.00423891 0.690542)
(11.8864 0.285213 0.883232)
(11.7794 0.00111098 0.82778)
(10.1001 -1.42363 0.489559)
(10.4439 -1.38847 0.503643)
(10.5605 -1.37081 0.626525)
(9.91123 -1.47119 0.563948)
(10.4665 -1.33872 0.377498)
(9.83175 -1.49843 0.469986)
(9.90395 -1.36061 0.0849687)
(9.66223 -1.48403 0.0898391)
(10.4938 -1.30256 0.429398)
(10.6028 -1.36222 0.520324)
(10.5996 -1.35751 0.638264)
(9.9519 -1.55632 0.517109)
(9.41173 -1.54449 -0.0129972)
(9.74657 -1.42204 0.03742)
(9.64924 -1.60877 -0.0473959)
(10.0657 -1.29271 0.145786)
(9.39832 -1.67813 0.0114024)
(9.43269 -1.68409 -0.0190216)
(12.3017 -0.535912 0.424837)
(12.5025 -0.455812 0.46539)
(12.5036 -0.42053 0.446489)
(12.5091 -0.390321 0.304922)
(12.2752 -0.461776 0.287833)
(12.5502 -0.33923 0.403197)
(12.29 -0.532622 0.427692)
(12.447 -0.450319 0.444305)
(12.4387 -0.433925 0.426899)
(12.5378 -0.326129 0.400308)
(12.4419 -0.403573 0.298712)
(12.3822 -0.451385 0.387873)
(12.472 -0.36733 0.343333)
(12.2362 -0.54577 0.352988)
(11.8514 -0.815434 0.621128)
(11.9247 -0.756222 0.640893)
(11.8339 -0.713886 0.95673)
(12.2083 -0.564728 0.959136)
(11.8466 -0.71256 0.979608)
(11.8145 -0.756854 0.96417)
(11.6362 -0.871468 0.730679)
(11.9367 -0.761607 0.612402)
(12.0331 -0.690014 0.661623)
(11.7438 -0.87253 0.880558)
(11.761 -0.843879 0.864152)
(11.6776 -0.862323 0.758272)
(11.9379 -0.769197 0.650093)
(12.2539 -0.579158 0.740853)
(12.2471 -0.591205 0.72186)
(11.746 -0.82516 0.711336)
(12.2107 -0.620241 0.790142)
(11.8863 -0.768604 0.813531)
(10.6099 3.36451 -0.750177)
(10.9845 3.28907 -0.655095)
(10.9785 3.04114 -0.60886)
(10.4121 3.29225 -0.523441)
(10.724 3.49371 -0.528153)
(11.3329 2.99602 -0.315709)
(11.1828 2.63251 -0.285931)
(11.0296 3.41669 0.0181645)
(11.2417 3.23867 0.054686)
(10.5806 3.35173 -0.13803)
(11.0903 2.56062 -0.230234)
(11.0823 3.5859 -0.159577)
(11.5343 -0.0991997 1.04818)
(12.1706 -0.0675513 1.05239)
(11.2825 -0.289761 0.995715)
(12.1352 -0.0519942 1.03695)
(11.387 -0.0447474 1.06577)
(11.7777 -0.244129 0.916153)
(11.3507 -0.20156 0.989409)
(11.4042 -0.257307 0.942136)
(11.6387 -0.276603 0.948833)
(12.4328 -0.0457159 0.898324)
(12.5675 -0.0581462 0.821134)
(12.4085 -0.0820729 0.864555)
(12.1781 -0.180191 0.79632)
(12.3049 -0.181922 0.777659)
(12.5435 -0.0693391 0.817533)
(12.294 -0.16958 0.77144)
(12.5116 0.0518475 1.13354)
(12.271 0.188935 1.07707)
(12.4399 0.094672 1.10259)
(12.2759 0.192196 1.03728)
(11.8819 0.18953 1.20402)
(11.7565 -0.0119732 1.28868)
(11.4041 -0.0871832 1.27525)
(11.8868 0.203411 1.29032)
(11.9058 0.191371 1.18181)
(12.2518 0.207523 1.05847)
(12.3803 0.122855 1.09391)
(12.3053 -0.0507404 1.18414)
(11.4407 -0.126021 1.23784)
(12.2571 -0.012899 1.13495)
(12.1027 -0.157345 1.17553)
(12.0883 -0.128252 1.19533)
(12.4511 0.467208 0.589172)
(12.5168 0.482127 0.610961)
(12.5678 0.413388 0.562519)
(12.3829 0.522435 0.441134)
(12.1861 0.699185 0.562399)
(12.4042 0.287776 0.529189)
(12.3319 0.298412 0.519787)
(12.5909 0.571011 0.553739)
(12.4781 0.645223 0.621954)
(12.4221 0.628176 0.460846)
(12.2715 0.712408 0.559966)
(12.3943 0.586881 0.626301)
(12.333 0.546948 0.598105)
(12.2138 0.510121 0.623409)
(12.3002 0.429101 0.522077)
(12.4787 0.301803 0.533008)
(12.4407 0.358959 0.499554)
(12.3625 0.354625 0.519826)
(12.4827 0.52133 0.501729)
(11.1907 -0.2933 -0.574322)
(11.1494 -0.299203 -0.546355)
(11.5505 -0.300839 -0.478239)
(10.7844 -0.328874 -0.582487)
(11.2428 -0.283283 -0.574613)
(10.8781 -0.340502 -0.541966)
(11.1401 -0.369211 -0.584136)
(11.6565 -0.291103 -0.539081)
(11.1338 -0.353088 -0.469792)
(11.8945 -0.322603 -0.414919)
(10.8851 -0.371806 -0.544618)
(11.267 -0.412798 -0.505581)
(11.3448 -0.40868 -0.407585)
(11.3209 -0.430642 -0.438073)
(9.27031 -0.335749 -0.418769)
(9.2051 -0.321141 -0.415781)
(9.92067 -0.392891 -0.260446)
(9.51559 -0.364293 -0.355067)
(9.58422 -0.363765 -0.332905)
(9.69053 -0.327982 -0.344773)
(10.3763 -0.334164 -0.165256)
(10.0598 -0.360828 -0.374349)
(9.87706 -0.350678 -0.392717)
(10.7745 -0.334538 -0.184063)
(10.6316 -0.322292 -0.192866)
(9.46392 -0.358565 -0.421183)
(10.5106 -0.326355 -0.187285)
(10.2742 -0.325661 -0.299905)
(10.2599 -0.320963 -0.28622)
(10.7587 -0.330022 -0.192032)
(10.6744 -0.319895 -0.201715)
(10.3526 -0.274672 -0.253371)
(11.7867 1.25262 -0.12047)
(11.4098 1.35453 -0.537677)
(11.1021 1.48536 -0.796715)
(12.4183 0.584104 -0.206707)
(12.3309 0.805089 -0.178801)
(11.8045 1.07252 -0.446166)
(11.9991 0.997918 -0.133034)
(12.534 0.53864 -0.198348)
(12.3671 0.811423 -0.148559)
(11.4308 1.05544 -0.755518)
(11.9461 0.788258 -0.557769)
(4.90502 -1.07699 -0.902412)
(5.02108 -1.14577 -0.877207)
(4.93979 -0.959178 -0.89971)
(4.77177 -0.862256 -0.965387)
(3.9344 -0.323268 -1.10597)
(3.62043 -0.101878 -0.959552)
(3.47442 0.0469898 -1.14038)
(3.32898 0.093218 -1.02628)
(5.37669 -1.15938 -1.02327)
(5.67587 -1.20821 -1.03328)
(4.9706 -0.990111 -0.890911)
(4.46446 -0.4791 -1.02686)
(4.39528 -0.334612 -1.08444)
(4.1503 -0.435644 -0.926157)
(4.02285 -0.194167 -1.0461)
(4.06179 -0.304356 -0.993615)
(3.54401 0.00993831 -1.13471)
(5.60767 -1.13005 -0.989964)
(5.38628 -0.893228 -1.08833)
(5.66676 -1.09 -1.009)
(5.07459 -0.852499 -1.15223)
(13.3838 -0.149451 0.466883)
(13.3931 -0.158082 0.43551)
(13.3875 -0.0885137 0.483391)
(13.4142 -0.120345 0.447632)
(13.3884 -0.0988135 0.491465)
(13.3764 -0.156729 0.458171)
(13.3756 -0.1527 0.472262)
(13.3745 -0.0853472 0.450973)
(13.3412 -0.0706 0.478061)
(13.2606 -0.0783192 0.505339)
(13.2709 -0.0981414 0.48007)
(13.2178 -0.0792516 0.507969)
(13.3755 -0.0929088 0.445411)
(13.2608 -0.0712178 0.501654)
(13.1814 -0.0666374 0.482057)
(13.2831 -0.0817965 0.458464)
(13.1854 -0.0555871 0.4817)
(12.0976 0.47866 1.09779)
(11.9397 0.485803 1.11702)
(11.6433 0.367699 1.28451)
(10.9692 0.391929 1.28758)
(12.0698 0.462499 1.1661)
(11.9483 0.442517 1.22527)
(10.9256 0.852688 0.768833)
(10.9191 0.704576 0.933056)
(11.7582 0.372173 1.2797)
(10.9668 0.411439 1.2568)
(11.1035 0.653995 1.27667)
(7.79629 0.258538 0.467601)
(7.86864 0.393192 0.363374)
(7.60034 0.425208 0.401176)
(6.1172 0.203834 0.289765)
(7.22993 0.198838 0.487142)
(5.38484 0.183197 0.29507)
(4.90036 0.144252 0.257282)
(5.92518 0.172497 0.510551)
(7.26767 0.297244 0.529949)
(7.46992 0.295366 0.429181)
(5.74893 0.225116 0.387703)
(6.11374 0.250911 0.367886)
(5.97086 0.267739 0.491052)
(12.4532 -0.320286 -0.235232)
(12.4199 -0.297697 -0.227473)
(12.5387 -0.322287 -0.137949)
(12.5593 -0.325894 -0.141425)
(12.3659 -0.371681 -0.208612)
(12.3826 -0.358343 -0.198262)
(12.3313 -0.342404 -0.274307)
(12.3146 -0.337546 -0.277128)
(12.5054 -0.29462 -0.156516)
(12.572 -0.315044 -0.16892)
(12.3746 -0.292918 -0.238456)
(12.3908 -0.282626 -0.227414)
(12.609 -0.318886 -0.13511)
(12.3403 -0.35061 -0.238422)
(12.5668 -0.303484 -0.119635)
(12.5382 -0.297565 -0.13418)
(12.3836 -0.292962 -0.216686)
(12.4205 -0.289486 -0.195617)
(12.53 -0.29617 -0.130919)
(12.5317 -0.30113 -0.128672)
(12.4869 -0.303951 -0.162221)
(12.4118 -0.317855 -0.200471)
(11.9766 -0.504288 -0.449762)
(12.4945 -0.43433 -0.379776)
(11.7337 -0.398416 -0.542732)
(12.5401 -0.335711 -0.423514)
(12.574 -0.437283 -0.371952)
(11.5096 -0.499278 -0.400353)
(11.6682 -0.347086 -0.553811)
(12.5571 -0.323339 -0.418624)
(12.1076 -0.34317 -0.509005)
(11.4862 -0.490118 -0.372213)
(12.052 -0.432434 -0.316762)
(12.1002 -0.461472 -0.363725)
(11.3018 -0.408605 -0.584807)
(12.5131 -0.331511 -0.425075)
(12.0925 -0.329904 -0.509154)
(11.1654 -0.423382 -0.618968)
(11.6879 -0.359114 -0.613223)
(12.2821 -0.397873 -0.406345)
(12.5578 -0.41213 -0.378194)
(12.5285 -0.398508 -0.400857)
(12.737 0.689901 0.286612)
(12.5471 0.747922 0.29298)
(12.4414 0.769173 0.392521)
(12.4952 0.73023 0.480406)
(12.7154 0.685467 0.27059)
(12.5796 0.727362 0.28956)
(12.4478 0.740607 0.49077)
(12.3541 0.775195 0.419651)
(12.7733 0.664307 0.394706)
(12.7647 0.633217 0.462374)
(12.8063 0.633912 0.425187)
(12.7256 0.67344 0.305078)
(12.6931 0.673806 0.298731)
(12.5689 0.728245 0.29809)
(12.8167 0.632 0.429522)
(12.7724 0.633535 0.481909)
(12.7253 0.639521 0.408087)
(12.5467 0.723579 0.293357)
(12.3401 0.7507 0.421211)
(12.4127 0.740304 0.515028)
(12.4103 0.725097 0.420622)
(12.3583 0.740738 0.474523)
(11.1649 0.422014 0.909427)
(11.2019 0.513785 0.923796)
(12.4082 0.438045 0.929688)
(12.3187 0.47786 0.900758)
(12.2105 0.431032 0.996224)
(12.0552 0.515082 1.00931)
(12.2579 0.433078 0.933909)
(12.1955 0.421144 0.992784)
(11.9411 0.400069 0.948605)
(11.3039 0.413682 0.894209)
(11.1835 0.357688 0.871258)
(11.3143 0.402811 0.868836)
(12.1136 0.556356 0.917709)
(12.2243 0.513205 0.833318)
(12.3486 0.457787 0.874222)
(11.4643 0.429083 0.884119)
(11.7362 0.49612 0.825636)
(12.4958 0.545 0.875706)
(12.5014 0.626656 0.852959)
(12.7669 0.353031 0.813341)
(12.7305 0.449188 0.771777)
(12.7891 0.387626 0.786566)
(12.9072 0.361342 0.78642)
(12.9515 0.33616 0.752717)
(12.8226 0.538182 0.701605)
(12.7875 0.523438 0.71445)
(12.7289 0.62233 0.699777)
(12.7993 0.605559 0.69891)
(12.9351 0.404098 0.745531)
(12.783 0.650374 0.702931)
(12.7099 0.650106 0.700812)
(10.9357 0.832304 -0.388989)
(10.8901 0.759695 -0.239527)
(10.8344 0.709092 -0.237795)
(10.8678 0.773574 -0.422189)
(10.8009 0.765314 -0.427115)
(10.9349 0.619111 -0.286003)
(10.8761 0.556832 -0.258006)
(10.9683 0.684027 -0.299276)
(10.9196 0.620976 -0.304866)
(10.8481 0.569325 -0.275354)
(13.1534 -0.16238 0.645358)
(13.1505 -0.181517 0.642656)
(13.0941 -0.128953 0.689249)
(13.094 -0.132236 0.656855)
(13.1158 -0.216204 0.663491)
(13.0876 -0.222276 0.672344)
(13.1223 -0.144954 0.663182)
(13.1022 -0.116146 0.673907)
(13.1015 -0.212878 0.67654)
(13.0868 -0.106329 0.696321)
(13.0892 -0.134063 0.71656)
(13.0838 -0.112986 0.721374)
(13.0891 -0.0927613 0.700586)
(13.0596 -0.176302 0.711339)
(13.0995 -0.0913031 0.701962)
(13.0869 -0.107831 0.717969)
(13.0481 -0.171788 0.709061)
(8.49816 0.0184902 0.1636)
(8.40983 0.00488761 0.204729)
(8.25682 0.0730772 0.229329)
(7.66062 -0.140365 0.0229486)
(7.64385 -0.0964371 -0.0473796)
(8.15545 0.0825712 0.131783)
(8.37719 -0.380322 -0.358622)
(8.40308 -0.32406 -0.329348)
(8.22405 -0.284587 -0.276958)
(8.04851 -0.283383 -0.246831)
(8.33115 0.0937534 0.257435)
(8.40982 0.063281 0.188362)
(8.4876 -0.115596 0.099431)
(8.50761 -0.0367334 0.109119)
(8.00325 -0.242891 -0.226163)
(8.00989 -0.168492 -0.200442)
(7.69367 -0.0810318 -0.0832647)
(8.29637 0.06449 0.119959)
(8.45651 -0.141365 0.0634192)
(8.30476 -0.0445834 0.0182382)
(11.8336 -0.0130746 0.542952)
(11.6879 -0.0761213 0.533856)
(11.6822 -0.0152772 0.515408)
(11.796 0.0111221 0.536316)
(11.6709 -0.119552 0.55307)
(11.3891 -0.0939713 0.541925)
(11.6033 -0.186093 0.530068)
(11.8482 -0.0293798 0.488661)
(11.8406 -0.00725439 0.520137)
(11.7863 -0.0693805 0.516433)
(11.4164 -0.20847 0.47176)
(11.3596 -0.122845 0.540793)
(11.8112 0.0169271 0.522383)
(11.5692 -0.0898487 0.516205)
(11.5762 -0.126688 0.496859)
(11.3222 -0.177318 0.497225)
(2.9233 -0.1324 0.695128)
(2.94749 -0.338616 0.847904)
(1.96029 -0.322962 1.0931)
(1.96047 -0.0713997 1.04736)
(5.82772 -0.625042 0.570767)
(4.30785 -0.504349 0.569053)
(7.54245 -0.21063 0.715681)
(5.55402 0.15575 0.801182)
(3.2699 0.355532 1.24098)
(4.58093 -0.117299 1.01321)
(7.46282 -0.228723 0.606975)
(5.70114 -0.180556 0.781148)
(4.73821 0.289863 0.749562)
(12.42 -0.0131119 1.12886)
(12.3756 0.0796865 1.19929)
(12.4829 -0.0402441 1.09802)
(12.6075 -0.0613055 1.0009)
(12.7802 -0.0660545 0.939956)
(12.6823 -0.041558 1.03618)
(12.3611 0.0969766 1.21311)
(12.5186 0.199705 1.0564)
(12.6527 0.0447742 1.00289)
(12.5914 -0.0382448 0.975122)
(12.8691 0.00239129 0.899133)
(12.5463 0.258411 1.01616)
(11.7902 0.398737 -0.10253)
(11.7424 0.297658 -0.135256)
(11.7932 0.262089 -0.148245)
(11.8851 0.397972 -0.0809864)
(11.8238 0.341018 -0.0853608)
(11.8626 0.315089 -0.104674)
(12.018 0.379771 -0.103343)
(12.1118 0.389948 -0.121112)
(12.0137 0.288718 -0.123329)
(11.9679 0.275849 -0.121965)
(12.0296 0.612742 -0.204739)
(12.1164 0.607256 -0.204649)
(11.9488 0.559204 -0.232276)
(12.012 0.55201 -0.215103)
(11.8548 0.547671 -0.238604)
(11.9017 0.46731 -0.159383)
(11.9216 0.37085 -0.0937064)
(11.9628 0.560097 -0.198578)
(11.99 0.442924 -0.136337)
(11.622 -0.369905 0.38561)
(11.5567 -0.32607 0.450256)
(11.8778 -0.285288 0.322817)
(11.8548 -0.225442 0.371698)
(11.8974 -0.216439 0.395013)
(12.2783 -0.277094 0.502396)
(12.0802 -0.289062 0.497476)
(11.7243 -0.308591 0.416021)
(12.056 -0.343077 0.359114)
(12.7869 -0.218599 0.643718)
(12.7852 -0.235799 0.628657)
(11.8975 -0.305036 0.492987)
(12.7635 -0.290069 0.49817)
(12.5353 -0.298556 0.470451)
(12.711 -0.231912 0.583569)
(12.9114 -0.228537 0.628702)
(12.9389 -0.216479 0.593999)
(12.5829 -0.299427 0.540333)
(12.8601 -0.218967 0.552526)
(1.59064 0.644273 -1.13457)
(1.76504 0.531259 -1.36563)
(2.54979 0.286276 -1.27247)
(2.2278 0.358196 -1.13901)
(2.01576 0.376789 -1.13221)
(2.16462 0.309657 -1.23115)
(2.5597 0.0436191 -1.07652)
(2.84331 -0.0700732 -1.13834)
(3.06022 -0.109106 -1.17328)
(2.99893 -0.11746 -1.06586)
(3.6064 -0.390124 -1.01392)
(3.6584 -0.438104 -1.07692)
(3.23185 0.0489096 -1.15504)
(3.52632 -0.247537 -1.19875)
(3.33262 -0.0447289 -1.07755)
(2.67901 0.123988 -1.20303)
(10.9139 0.514468 -0.316826)
(10.8315 0.481872 -0.249989)
(10.8824 0.49345 -0.331087)
(10.9778 0.552087 -0.395436)
(10.9047 0.54439 -0.66934)
(10.8293 0.534946 -0.662237)
(10.8414 0.487649 -0.306203)
(10.9389 0.562676 -0.536356)
(10.8745 0.569488 -0.656483)
(10.8267 0.534804 -0.66548)
(10.7972 0.408044 -0.377763)
(10.8894 0.470578 -0.489046)
(10.8811 0.557704 -0.487886)
(10.761 0.420316 -0.379)
(10.7209 0.415614 -0.386943)
(10.7899 0.512208 -0.509073)
(8.16092 0.274103 -1.00648)