/*--------------------------------*- C++ -*----------------------------------*\
  =========                 |
  \\      /  F ield         | OpenFOAM: The Open Source CFD Toolbox
   \\    /   O peration     | Website:  https://openfoam.org
    \\  /    A nd           | Version:  10
     \\/     M anipulation  |
\*---------------------------------------------------------------------------*/
FoamFile
{
    format      ascii;
    class       volScalarField;
    location    "9";
    object      C;
}
// * * * * * * * * * * * * * * * * * * * * * * * * * * * * * * * * * * * * * //

dimensions      [1 3 0 0 0 0 0];

internalField   nonuniform List<scalar> 
75457
(
0.49786
0.497625
0.498503
0.499086
0.499322
0.499277
0.498482
0.498391
0.499808
0.499806
0.499809
0.499564
0.499589
0.499755
0.480843
0.483915
0.493639
0.490111
0.486381
0.492984
0.490538
0.490922
0.484965
0.485141
0.491446
0.479372
0.477571
0.44239
0.42899
0.435867
0.435064
0.415814
0.413777
0.454759
0.449363
0.456908
0.457581
0.418203
0.419308
0.44687
0.452603
0.443984
0.452624
0.495674
0.493624
0.497619
0.497578
0.495909
0.499192
0.498598
0.498645
0.499301
0.499012
0.498591
0.49908
0.499284
0.499044
0.499137
0.499294
0.499095
0.499118
0.499466
0.5
0.5
0.5
0.5
0.5
0.5
0.5
0.5
0.5
0.5
0.5
0.5
0.5
0.5
0.5
0.120545
0.0489586
0.0158557
0.125859
0.0416605
0.0886139
0.0199359
0.00706263
0.00607941
0.0159379
0.0183625
0.094304
0.124451
0.00232276
0.00420285
0.0923256
0.00726405
0.499999
0.499999
0.499999
0.499999
0.5
0.499999
0.5
0.5
0.5
0.5
0.5
0.5
0.5
0.5
0.5
0.5
0.5
0.5
0.5
0.5
0.5
0.5
0.5
0.5
0.5
0.5
0.5
0.5
0.5
0.5
0.5
0.5
0.5
0.5
0.5
0.5
0.5
0.5
0.5
0.5
0.5
0.5
0.5
0.5
0.5
0.5
0.5
0.5
0.5
0.5
0.5
0.5
0.5
0.5
0.5
0.5
0.5
0.5
0.5
0.5
0.5
0.5
0.5
0.5
0.5
0.5
0.5
0.5
0.5
0.5
0.5
0.5
0.5
0.5
0.5
0.5
0.5
0.5
0.5
0.5
0.5
0.5
0.5
0.5
0.5
0.5
0.5
0.5
0.5
0.5
0.5
0.5
0.5
0.5
0.5
0.5
0.486478
0.484155
0.483087
0.476105
0.471873
0.474501
0.5
0.5
0.5
0.5
0.5
0.5
0.5
0.5
0.5
0.5
0.5
0.499928
0.49996
0.499962
0.499923
0.499831
0.499958
0.499925
0.499837
0.499883
0.49996
0.499814
0.499912
0.499957
0.499928
0.5
0.5
0.5
0.5
0.5
0.5
0.5
0.5
0.5
0.5
0.5
0.5
0.5
0.5
0.498049
0.497184
0.498101
0.498833
0.498867
0.497916
0.498931
0.497949
0.497042
0.498293
0.49753
0.49902
0.499278
0.497159
0.49783
0.499113
0.497895
0.490731
0.491136
0.490935
0.491157
0.493203
0.493644
0.493946
0.495972
0.495933
0.495927
0.490587
0.493791
0.499511
0.499604
0.498883
0.499472
0.499622
0.499545
0.499517
0.499639
0.498731
0.498516
0.499529
0.498598
0.499545
0.5
0.5
0.5
0.5
0.5
0.5
0.5
0.5
0.5
0.5
0.5
0.5
0.5
0.5
0.5
0.279594
0.290046
0.257614
0.266201
0.26964
0.304352
0.292717
0.279178
0.293431
0.00169411
0.0017272
0.00374347
0.00322894
0.0031756
0.00284247
0.00438934
0.00557563
0.00238604
0.00444791
0.0060493
0.00283784
0.00383946
0.0288417
0.0129021
3.37409e-05
0.0129739
0.0156704
0.0128417
0.0163802
7.23103e-06
3.54293e-05
0.000399133
5.89673e-05
0.499996
0.499996
0.499997
0.499997
0.499996
0.499994
0.499995
0.499998
0.499997
0.499997
0.499998
0.499997
0.499996
0.499995
0.499998
0.499996
0.499997
0.149462
0.174694
0.151042
0.213144
0.118866
0.112897
0.126223
0.160344
0.13328
0.186527
0.152001
0.473163
0.480924
0.483576
0.473807
0.477676
0.449068
0.445341
0.471193
0.481456
0.46787
0.479862
0.410924
0.421803
0.414015
0.427387
0.41264
0.403967
0.412592
0.406263
0.415435
0.424319
0.404105
0.399971
0.417002
0.425288
0.416541
0.0810264
0.0567286
0.0573329
0.095892
0.0333236
0.499863
0.499886
0.499713
0.49984
0.499453
0.499449
0.499844
0.5
0.5
0.5
0.5
0.5
0.5
0.5
0.5
0.5
0.5
0.5
0.5
0.5
0.5
0.5
0.5
0.5
0.5
0.5
0.5
0.5
0.5
0.5
0.5
0.5
0.5
0.5
0.5
0.5
0.5
0.5
0.5
0.5
0.5
0.5
0.5
0.5
0.5
0.5
0.5
0.5
0.5
0.5
0.5
0.5
0.5
0.5
0.5
0.5
0.5
0.5
0.5
0.5
0.499954
0.499376
0.499481
0.499387
0.499502
0.499959
0.499635
0.499859
0.499493
0.49995
0.499688
0.499605
0.499837
0.49961
0.499839
0.499947
0.499885
0.499677
0.499311
0.499233
0.499821
0.499775
0.499207
0.499281
0.499975
0.499975
0.499385
0.499892
0.499885
0.499189
0.499834
0.499974
0.5
0.5
0.5
0.5
0.5
0.5
0.5
0.5
0.5
0.5
0.5
0.5
0.5
0.5
0.5
0.5
0.5
0.5
0.5
0.5
0.5
0.5
0.5
0.5
0.5
0.5
0.5
0.5
0.5
0.5
0.5
0.5
0.5
0.5
0.5
0.5
0.5
0.5
0.5
0.5
0.5
0.5
0.5
0.5
0.5
0.5
0.5
0.5
0.5
0.5
0.5
0.5
0.5
0.5
0.5
0.5
0.5
0.5
0.5
0.5
0.5
0.5
0.5
0.5
0.5
0.5
0.5
0.5
0.450714
0.456592
0.458903
0.44937
0.455664
0.447417
0.444602
0.439541
0.457246
0.459797
0.459954
0.450123
0.433123
0.443943
0.441238
0.45014
0.434694
0.436647
0.492568
0.495525
0.49553
0.494714
0.492056
0.496407
0.492139
0.494635
0.494221
0.495914
0.493736
0.492932
0.494294
0.491047
0.484474
0.485546
0.481275
0.486885
0.481389
0.481015
0.479442
0.485886
0.486842
0.480129
0.480431
0.479949
0.485535
0.489284
0.489428
0.481415
0.488
0.482268
0.5
0.5
0.5
0.5
0.5
0.5
0.5
0.5
0.5
0.5
0.5
0.5
0.47899
0.488251
0.47719
0.4875
0.477746
0.483205
0.47864
0.479119
0.481685
0.491188
0.492917
0.491867
0.489803
0.49034
0.492853
0.490482
0.492278
0.487297
0.490499
0.487368
0.481209
0.479465
0.472438
0.480394
0.481629
0.486935
0.489174
0.488846
0.473589
0.487021
0.485407
0.485485
0.5
0.5
0.5
0.5
0.5
0.5
0.5
0.5
0.5
0.5
0.5
0.5
0.5
0.5
0.5
0.5
0.5
0.5
0.5
0.45223
0.448374
0.456533
0.433483
0.452625
0.432903
0.450098
0.470748
0.438052
0.473623
0.436554
0.454406
0.450104
0.453854
0.252108
0.238942
0.296279
0.280801
0.261334
0.299183
0.332305
0.300854
0.29201
0.36805
0.346443
0.277799
0.353705
0.325186
0.335254
0.359037
0.346032
0.342766
0.499566
0.49922
0.499135
0.499853
0.499822
0.499329
0.499627
0.499846
0.499817
0.499229
0.499419
0.20534
0.214142
0.196178
0.187875
0.0947165
0.0424238
0.0777032
0.037929
0.240463
0.264746
0.185302
0.126735
0.121542
0.0836683
0.0869809
0.0877749
0.0530358
0.24719
0.214824
0.243633
0.207051
0.499892
0.499891
0.499989
0.499961
0.499989
0.499899
0.499895
0.499995
0.499999
0.499994
0.499984
0.499997
0.499995
0.499994
0.499999
0.499997
0.499999
0.485347
0.482067
0.479719
0.470834
0.485944
0.484114
0.466725
0.467041
0.481724
0.471421
0.472496
0.272738
0.265469
0.264551
0.179798
0.246246
0.140461
0.122391
0.19903
0.260269
0.257128
0.192806
0.190452
0.204634
0.492357
0.491837
0.492321
0.493225
0.486402
0.486383
0.486677
0.485374
0.495374
0.495366
0.489733
0.491355
0.495845
0.484972
0.495422
0.492807
0.490344
0.49216
0.493046
0.494481
0.494756
0.488269
0.490839
0.495597
0.487063
0.496189
0.496385
0.481159
0.485796
0.496259
0.490696
0.478772
0.488053
0.489675
0.476179
0.495541
0.49028
0.471446
0.481632
0.491488
0.496173
0.495621
0.497828
0.495307
0.491579
0.491804
0.4978
0.495693
0.490875
0.489722
0.497182
0.496863
0.497278
0.49756
0.497181
0.495462
0.497373
0.496602
0.49673
0.495175
0.489542
0.490431
0.490942
0.489642
0.46003
0.462262
0.488951
0.487134
0.485581
0.482009
0.485487
0.485175
0.478184
0.461705
0.45985
0.46435
0.482524
0.483909
0.486797
0.465132
0.472034
0.495454
0.495434
0.4966
0.496951
0.497207
0.497341
0.497972
0.497665
0.497682
0.497292
0.497387
0.497884
0.496716
0.496375
0.5
0.5
0.5
0.5
0.5
0.5
0.5
0.5
0.5
0.5
0.499485
0.499495
0.499623
0.499681
0.498769
0.498337
0.499627
0.499748
0.498615
0.499541
0.499231
0.499236
0.499603
0.498091
0.499606
0.499209
0.497903
0.47017
0.471963
0.468553
0.454263
0.450029
0.462583
0.465488
0.463459
0.457056
0.45485
0.470876
0.469077
0.471122
0.469302
0.458249
0.45141
0.448777
0.464966
0.466264
0.461558
0.5
0.5
0.5
0.5
0.5
0.5
0.5
0.5
0.5
0.5
0.5
0.5
0.5
0.5
0.5
0.5
0.278471
0.272483
0.256518
0.256887
0.382756
0.330863
0.412093
0.336497
0.284355
0.314051
0.411224
0.335496
0.295914
0.487221
0.48634
0.488562
0.491517
0.493426
0.491191
0.48639
0.490165
0.492241
0.491576
0.495021
0.490674
0.5
0.5
0.5
0.5
0.5
0.5
0.5
0.5
0.5
0.5
0.5
0.5
0.5
0.5
0.5
0.5
0.5
0.5
0.5
0.485734
0.484976
0.491146
0.491138
0.491135
0.491107
0.489386
0.487649
0.491618
0.495822
0.495832
0.488321
0.496238
0.494902
0.494909
0.497013
0.497456
0.495011
0.496713
0.0136748
0.0169825
0.0339172
0.0197076
0.0163587
0.0201402
0.0268174
0.0434541
0.0507329
0.0412249
0.0675595
0.0796316
0.05464
0.0632919
0.0593779
0.0279261
0.5
0.5
0.5
0.5
0.5
0.5
0.5
0.5
0.5
0.5
0.5
0.5
0.5
0.5
0.5
0.5
0.441801
0.384516
0.451544
0.391747
0.442114
0.35638
0.483423
0.456786
0.488799
0.4889
0.483579
0.455533
0.388483
0.340725
0.442418
0.483267
0.482803
0.483373
0.455928
0.373847
0.5
0.5
0.5
0.5
0.5
0.5
0.5
0.5
0.5
0.5
0.5
0.5
0.5
0.5
0.5
0.5
0.5
0.5
0.5
0.5
0.5
0.5
0.5
0.499993
0.499984
0.499986
0.5
0.499982
0.499982
0.499963
0.499945
0.499983
0.49996
0.499968
0.499961
0.49998
0.499994
0.499967
0.499986
0.499981
0.499994
0.499983
0.499994
0.499994
0.499994
0.499309
0.499257
0.499031
0.499151
0.499687
0.499743
0.498602
0.498712
0.499323
0.499069
0.49965
0.498847
0.499024
0.499691
0.499266
0.499733
0.499673
0.499675
0.499631
0.498976
0.495952
0.496653
0.498953
0.498676
0.49635
0.496341
0.497884
0.497397
0.496979
0.499121
0.499042
0.497997
0.498261
0.497757
0.498142
0.499601
0.499196
0.499139
0.498836
0.499656
0.499514
0.498796
0.499133
0.499658
0.5
0.5
0.5
0.5
0.5
0.5
0.5
0.5
0.5
0.5
0.5
0.5
0.5
0.5
0.5
0.5
0.5
0.5
0.5
0.5
0.5
0.5
0.5
0.5
0.5
0.5
0.5
0.5
0.5
0.5
0.5
0.5
0.499583
0.499739
0.499514
0.49944
0.499363
0.499684
0.499748
0.499699
0.499621
0.499516
0.499399
0.499512
0.49955
0.499573
0.499629
0.499557
0.499669
0.499598
0.491779
0.489292
0.490959
0.487628
0.490502
0.495078
0.494043
0.494873
0.49336
0.490292
0.491775
0.493018
0.496025
0.494916
0.493864
0.492872
0.495299
0.49397
0.491336
0.489602
0.491618
0.490165
0.488314
0.491122
0.486033
0.483724
0.492532
0.487939
0.48883
0.481787
0.480358
0.480156
0.485413
0.491509
0.486283
0.108541
0.139219
0.116894
0.198926
0.160934
0.16531
0.194375
0.149866
0.0619799
0.499999
0.499999
0.499998
0.499974
0.499993
0.499998
0.499998
0.499999
0.499973
0.49997
0.499991
0.499971
0.498483
0.498658
0.497708
0.498646
0.497347
0.498907
0.498878
0.499005
0.497574
0.497551
0.497684
0.499076
0.497939
0.499096
0.498978
0.499185
0.5
0.5
0.5
0.5
0.5
0.5
0.5
0.5
0.5
0.5
0.499998
0.499997
0.499999
0.499999
0.499999
0.499998
0.499998
0.499999
0.499995
0.499998
0.499998
0.499998
0.499998
0.499998
0.499997
0.499996
0.499997
0.499998
0.499873
0.499886
0.499847
0.49989
0.499907
0.49983
0.499912
0.499888
0.499853
0.499878
0.499868
0.499945
0.499934
0.499924
0.499919
0.499919
0.49995
0.499939
0.5
0.5
0.5
0.5
0.5
0.5
0.5
0.5
0.5
0.5
0.5
0.5
0.5
0.5
0.5
0.5
0.5
0.5
0.5
0.5
0.5
0.5
0.5
0.5
0.5
0.5
0.5
0.5
0.5
0.5
0.5
0.5
0.5
0.5
0.49794
0.497916
0.497696
0.497987
0.496999
0.497559
0.497934
0.498062
0.498286
0.497458
0.497704
0.498461
0.49877
0.498258
0.498842
0.498723
0.498461
0.498775
0.498994
0.499972
0.499988
0.499987
0.499998
0.499573
0.499498
0.499897
0.499878
0.499993
0.499989
0.499882
0.499944
0.499997
0.499619
0.499164
0.499847
0.499978
0.499917
0.499978
0.499962
0.429954
0.444245
0.407456
0.447842
0.428623
0.430084
0.428769
0.380785
0.45027
0.447355
0.415236
0.440572
0.385466
0.402551
0.385321
0.4442
0.44329
0.44649
0.40815
0.12456
0.123702
0.154602
0.12824
0.114776
0.0975999
0.213199
0.218963
0.211111
0.266664
0.247812
0.0957436
0.145067
0.230486
0.153448
0.129937
0.5
0.5
0.5
0.5
0.5
0.5
0.5
0.5
0.5
0.5
0.5
0.5
0.5
0.5
0.5
0.5
0.5
0.5
0.5
0.5
0.5
0.5
0.5
0.5
0.5
0.5
0.5
0.5
0.5
0.5
0.5
0.5
0.5
0.5
0.5
0.5
0.5
0.5
0.5
0.5
0.5
0.5
0.5
0.5
0.5
0.5
0.5
0.5
0.5
0.5
0.5
0.5
0.5
0.5
0.5
0.5
0.5
0.498922
0.498862
0.49916
0.498989
0.499085
0.498978
0.498824
0.49927
0.498859
0.499154
0.499017
0.49884
0.5
0.5
0.5
0.5
0.5
0.5
0.5
0.5
0.5
0.5
0.5
0.5
0.5
0.5
0.5
0.5
0.5
0.5
0.5
0.5
0.5
0.5
0.5
0.5
0.5
0.5
0.5
0.5
0.5
0.5
0.5
0.5
0.5
0.5
0.5
0.5
0.5
0.5
0.5
0.5
0.5
0.5
0.5
0.5
0.5
0.5
0.5
0.5
0.5
0.5
0.5
0.5
0.5
0.5
0.5
0.5
0.5
0.5
0.5
0.5
0.5
0.5
0.5
0.5
0.5
0.5
0.5
0.5
0.5
0.5
0.5
0.5
0.5
0.5
0.5
0.5
0.5
0.5
0.5
0.5
0.5
0.5
0.5
0.5
0.5
0.5
0.5
0.5
0.5
0.5
0.5
0.5
0.5
0.5
0.5
0.5
0.5
0.5
0.5
0.5
0.5
0.5
0.5
0.5
0.5
0.5
0.5
0.5
0.5
0.5
0.5
0.5
0.5
0.5
0.5
0.5
0.5
0.5
0.499997
0.499998
0.499998
0.499997
0.499999
0.499983
0.499962
0.499987
0.499869
0.499959
0.499964
0.499892
0.499867
0.49998
0.173658
0.163756
0.167857
0.211538
0.5
0.5
0.5
0.5
0.5
0.5
0.5
0.5
0.5
0.5
0.5
0.5
0.5
0.5
0.5
0.5
0.5
0.5
0.5
0.5
0.5
0.5
0.297911
0.339608
0.290623
0.24851
0.307795
0.349218
0.339289
0.320801
0.301569
0.263253
0.216744
0.294412
0.224072
0.166476
0.239154
0.251844
0.497955
0.498521
0.497503
0.497469
0.498544
0.498307
0.49801
0.498253
0.498274
0.498568
0.498083
0.496913
0.496968
0.496114
0.497886
0.497502
0.497977
0.498335
0.497882
0.497515
0.496843
0.497404
0.499671
0.499708
0.499789
0.499715
0.499827
0.499873
0.499798
0.499824
0.49961
0.499865
0.499829
0.499855
0.499791
0.499788
0.499738
0.499867
0.499858
0.499826
0.49983
0.401335
0.40054
0.400851
0.429361
0.400323
0.399623
0.43068
0.402814
0.407771
0.428456
0.402214
0.381382
0.378323
0.380768
0.37864
0.399183
0.425113
0.42436
0.415568
0.416798
0.423296
0.398058
0.5
0.5
0.5
0.5
0.5
0.5
0.5
0.5
0.5
0.5
0.5
0.5
0.5
0.5
0.5
0.5
0.5
0.5
0.5
0.5
0.5
0.5
0.5
0.5
0.5
0.499999
0.499999
0.499999
0.5
0.5
0.5
0.5
0.5
0.5
0.5
0.499999
0.5
0.5
0.5
0.5
0.5
0.5
0.5
0.5
0.5
0.5
0.5
0.5
0.5
0.5
0.338387
0.322393
0.347229
0.329013
0.349703
0.400777
0.357554
0.403795
0.387517
0.421085
0.452849
0.440212
0.378813
0.421379
0.451166
0.405112
0.404123
0.371489
0.365426
0.396411
0.394728
0.400736
0.403842
0.362358
0.35926
0.398552
0.392434
0.398681
0.423028
0.399152
0.40815
0.386094
0.413879
0.405821
0.41882
0.41401
0.416597
0.411347
0.407503
0.398122
0.389853
0.402478
0.388885
0.396811
0.409344
0.410058
0.404384
0.413805
0.426047
0.427678
0.430749
0.429655
0.43452
0.442452
0.442461
0.425726
0.437529
0.307345
0.339203
0.370586
0.35491
0.381549
0.359553
0.302418
0.32736
0.34085
0.345506
0.3673
0.371961
0.34884
0.377263
0.288987
0.333624
0.348803
0.5
0.5
0.5
0.5
0.5
0.5
0.5
0.5
0.5
0.5
0.497169
0.498843
0.49611
0.495984
0.499714
0.499082
0.496713
0.496573
0.496708
0.496895
0.49809
0.499242
0.497403
0.499753
0.499497
0.497774
0.499228
0.499267
0.499997
0.499998
0.499997
0.499997
0.499999
0.499998
0.499998
0.499998
0.499999
0.499999
0.499998
0.499999
0.499999
0.456976
0.452172
0.458894
0.454359
0.446964
0.462233
0.45498
0.450991
0.433314
0.438712
0.454745
0.447289
0.441475
0.44139
0.499507
0.499865
0.498535
0.499533
0.499902
0.499512
0.498842
0.499486
0.499796
0.499553
0.499784
0.499462
0.499161
0.499759
0.498803
0.00500178
0.00654995
0.0047126
0.00277745
0.00457252
0.00326492
0.0161457
0.0215142
0.00293179
0.00431479
0.0114035
0.0170647
0.00805595
0.00713916
0.00535535
0.023627
0.01539
0.00906003
0.5
0.5
0.5
0.5
0.5
0.5
0.5
0.5
0.5
0.5
0.5
0.5
0.499998
0.5
0.499995
0.499997
0.499999
0.499999
0.5
0.5
0.5
0.5
0.499999
0.499993
0.499996
0.499999
0.499998
0.5
0.499999
0.499996
0.499997
0.499999
0.0222004
0.00684048
0.0148982
0.00376183
0.0149898
0.00374324
0.00258725
0.016016
0.0112349
0.0021657
0.003218
0.00138502
0.00263185
0.0114543
0.00920294
0.00407023
0.00228044
0.00947985
0.5
0.5
0.5
0.5
0.5
0.5
0.5
0.5
0.5
0.5
0.5
0.5
0.5
0.5
0.5
0.5
0.5
0.5
0.5
0.498002
0.497901
0.498779
0.49856
0.494716
0.494459
0.493451
0.491772
0.492093
0.492587
0.496343
0.496879
0.497971
0.49709
0.492105
0.491361
0.493179
0.495271
0.5
0.5
0.5
0.5
0.5
0.5
0.5
0.5
0.5
0.5
0.5
0.5
0.5
0.5
0.5
0.5
0.5
0.5
0.5
0.5
0.5
0.5
0.5
0.5
0.5
0.5
0.5
0.5
0.5
0.5
0.5
0.5
0.5
0.5
0.5
0.5
0.5
0.5
0.5
0.5
0.5
0.5
0.5
0.5
0.5
0.5
0.5
0.5
0.5
0.5
0.5
0.5
0.5
0.5
0.5
0.5
0.5
0.5
0.5
0.5
0.5
0.5
0.5
0.5
0.5
0.5
0.5
0.5
0.5
0.5
0.5
0.5
0.5
0.5
0.5
0.5
0.5
0.5
0.5
0.5
0.498686
0.498744
0.498758
0.499548
0.499455
0.49915
0.498852
0.49914
0.498923
0.499302
0.499618
0.498677
0.499312
0.499476
0.499169
0.498354
0.49838
0.497867
0.498707
0.497915
0.498441
0.4984
0.49778
0.498075
0.497671
0.498555
0.49723
0.497735
0.499492
0.499667
0.499635
0.499116
0.498479
0.5
0.5
0.5
0.5
0.5
0.5
0.5
0.5
0.5
0.5
0.5
0.5
0.5
0.5
0.5
0.481931
0.484835
0.486655
0.486785
0.480473
0.486505
0.479152
0.475031
0.477108
0.5
0.5
0.5
0.5
0.5
0.5
0.5
0.5
0.5
0.5
0.5
0.5
0.5
0.5
0.5
0.5
0.5
0.5
0.5
0.5
0.5
0.5
0.5
0.5
0.5
0.5
0.5
0.5
0.5
0.5
0.5
0.5
0.5
0.5
0.5
0.5
0.5
0.5
0.5
0.5
0.5
0.5
0.5
0.5
0.5
0.5
0.5
0.5
0.5
0.5
0.5
0.5
0.5
0.5
0.5
0.5
0.5
0.5
0.5
0.5
0.5
0.5
0.5
0.5
0.5
0.5
0.5
0.5
0.497541
0.497323
0.49698
0.497244
0.49907
0.498749
0.499083
0.499088
0.497001
0.499577
0.499003
0.49804
0.498585
0.49975
0.499864
0.499238
0.499643
0.499354
0.499667
0.499865
0.499854
0.499825
0.499873
0.499231
0.499879
0.499601
0.499992
0.499991
0.499991
0.499991
0.499995
0.499995
0.499996
0.49997
0.499982
0.499974
0.499982
0.499974
0.499973
0.499983
0.499983
0.499992
0.499989
0.499975
0.5
0.5
0.5
0.5
0.5
0.5
0.5
0.5
0.5
0.5
0.5
0.5
0.5
0.5
0.5
0.5
0.5
0.5
0.5
0.5
0.5
0.5
0.5
0.5
0.5
0.5
0.482942
0.487345
0.484715
0.483348
0.484694
0.484856
0.48264
0.482396
0.48213
0.481459
0.482054
0.483616
0.481369
0.496565
0.498978
0.499199
0.498717
0.498406
0.496491
0.496238
0.496815
0.499165
0.498727
0.498412
0.498319
0.498851
0.498675
0.498507
0.499502
0.4998
0.499772
0.499138
0.499454
0.499809
0.499825
0.49984
0.49985
0.499859
0.499772
0.499779
0.498964
0.49958
0.499752
0.499484
0.499457
0.499769
0.499143
0.4996
0.499516
0.499845
0.499394
0.498726
0.499486
0.499812
0.499639
0.499456
0.499502
0.498777
0.274802
0.271476
0.336495
0.374042
0.313976
0.357602
0.303989
0.305853
0.351338
0.351862
0.298553
0.5
0.5
0.5
0.5
0.5
0.5
0.5
0.5
0.5
0.5
0.5
0.5
0.5
0.5
0.5
0.5
0.5
0.5
0.5
0.5
0.5
0.5
0.5
0.5
0.5
0.5
0.5
0.5
0.5
0.5
0.5
0.5
0.5
0.5
0.5
0.5
0.5
0.5
0.5
0.5
0.5
0.5
0.5
0.5
0.5
0.5
0.5
0.5
0.5
0.5
0.5
0.5
0.5
0.5
0.5
0.5
0.5
0.5
0.5
0.5
0.5
0.5
0.5
0.5
0.5
0.5
0.5
0.5
0.5
0.5
0.5
0.5
0.5
0.5
0.5
0.5
0.5
0.5
0.5
0.5
0.5
0.5
0.5
0.5
0.5
0.5
0.5
0.5
0.5
0.499999
0.499999
0.5
0.5
0.5
0.5
0.499999
0.5
0.5
0.5
0.499511
0.499536
0.499479
0.499482
0.499814
0.499701
0.499792
0.499581
0.499963
0.499959
0.499876
0.499958
0.499922
0.49987
0.49996
0.499963
0.499816
0.499876
0.488615
0.477965
0.486024
0.484807
0.48681
0.480697
0.493469
0.493777
0.48044
0.493647
0.489161
0.477644
0.489939
0.489747
0.489719
0.491077
0.493722
0.486657
0.483761
0.493853
0.479733
0.48994
0.492471
0.493756
0.485619
0.479365
0.479738
0.495626
0.495684
0.496391
0.496361
0.495615
0.48416
0.475615
0.483853
0.493906
0.472895
0.495584
0.471702
0.369727
0.368682
0.441996
0.362742
0.371431
0.463137
0.404369
0.494399
0.239458
0.267567
0.374379
0.330593
0.244237
0.408947
0.382679
0.225607
0.231041
0.393267
0.415653
0.282714
0.320797
0.400677
0.393738
0.321622
0.294111
0.34375
0.5
0.5
0.5
0.5
0.5
0.5
0.5
0.5
0.5
0.5
0.499999
0.499999
0.499999
0.499999
0.5
0.5
0.5
0.499999
0.499999
0.5
0.498643
0.498421
0.499163
0.499318
0.49931
0.499447
0.49925
0.499005
0.498271
0.498779
0.499308
0.499231
0.499214
0.499253
0.499889
0.499996
0.499877
0.499854
0.499998
0.499994
0.499762
0.499969
0.499999
0.499903
0.499865
0.49976
0.499999
0.499996
0.499999
0.5
0.5
0.5
0.46792
0.445176
0.446745
0.393783
0.374001
0.422127
0.430211
0.485014
0.375838
0.426886
0.47652
0.471899
0.476623
0.47062
0.451687
0.488609
0.401605
0.428797
0.489594
0.473384
0.485229
0.493206
0.5
0.5
0.5
0.5
0.5
0.5
0.5
0.5
0.5
0.5
0.5
0.5
0.5
0.5
0.5
0.5
0.5
0.5
0.5
0.5
0.5
0.5
0.5
0.5
0.5
0.5
0.5
0.5
0.5
0.5
0.5
0.5
0.5
0.5
0.5
0.340983
0.287516
0.339438
0.266693
0.312188
0.267301
0.287841
0.373306
0.499991
0.499989
0.5
0.499998
0.499998
0.499998
0.499998
0.499992
0.499999
0.499999
0.499991
0.499997
0.5
0.5
0.5
0.5
0.5
0.5
0.5
0.5
0.5
0.5
0.5
0.5
0.5
0.5
0.5
0.5
0.5
0.5
0.499998
0.499995
0.499987
0.499991
0.499995
0.499998
0.499994
0.49998
0.499987
0.49998
0.499982
0.499986
0.499994
0.499978
0.499984
0.499983
0.499975
0.499974
0.452909
0.45778
0.460844
0.469577
0.457799
0.466987
0.471196
0.469282
0.472909
0.474499
0.45472
0.475808
0.477421
0.477683
0.448021
0.458463
0.470398
0.474123
0.478561
0.478046
0.451724
0.476097
0.5
0.5
0.5
0.5
0.5
0.5
0.5
0.5
0.5
0.5
0.5
0.5
0.5
0.5
0.5
0.5
0.277915
0.303308
0.311333
0.29938
0.278352
0.270547
0.319703
0.333463
0.32459
0.313688
0.341282
0.340573
0.28844
0.31901
0.308655
0.319684
0.272699
0.270447
0.495205
0.472526
0.47278
0.485713
0.493168
0.492163
0.481255
0.480295
0.494651
0.494185
0.493669
0.492661
0.493446
0.495974
0.495984
0.496397
0.5
0.5
0.5
0.5
0.5
0.5
0.5
0.5
0.5
0.5
0.5
0.5
0.5
0.5
0.5
0.5
0.5
0.5
0.5
0.5
0.499959
0.499958
0.499804
0.499859
0.499997
0.499988
0.499999
0.49999
0.499925
0.499908
0.499999
0.49999
0.499989
0.499989
0.499999
0.499999
0.496638
0.49636
0.49665
0.494818
0.498813
0.494726
0.49837
0.494755
0.498363
0.499581
0.498696
0.499433
0.496764
0.496213
0.496078
0.495806
0.496241
0.495044
0.495547
0.497341
0.495511
0.495856
0.494336
0.494729
0.496738
0.496869
0.494022
0.494623
0.49632
0.499913
0.499817
0.499397
0.499616
0.499633
0.499689
0.499721
0.499938
0.499818
0.49993
0.499901
0.499875
0.499739
0.499472
0.49949
0.499853
0.499745
0.499633
0.499919
0.499918
0.499965
0.499979
0.499899
0.499922
0.499955
0.499957
0.499916
0.499998
0.499997
0.499992
0.499997
0.499998
0.499997
0.499997
0.499997
0.499989
0.499965
0.499964
0.5
0.5
0.5
0.5
0.5
0.5
0.5
0.5
0.5
0.5
0.5
0.5
0.5
0.5
0.5
0.5
0.5
0.5
0.5
0.5
0.5
0.5
0.5
0.5
0.5
0.5
0.5
0.5
0.5
0.5
0.5
0.5
0.5
0.5
0.5
0.5
0.5
0.5
0.5
0.5
0.477921
0.477235
0.479708
0.48064
0.47734
0.480201
0.471975
0.477653
0.475073
0.482855
0.486499
0.483526
0.47592
0.480503
0.483503
0.5
0.5
0.5
0.5
0.5
0.5
0.5
0.5
0.5
0.5
0.5
0.5
0.5
0.5
0.5
0.5
0.5
0.166161
0.141737
0.183645
0.172658
0.345054
0.33071
0.250137
0.261578
0.342967
0.360117
0.166664
0.325071
0.3263
0.330344
0.332057
0.294693
0.312584
0.346046
0.349163
0.349384
0.359813
0.323769
0.47326
0.469412
0.446992
0.457378
0.456955
0.443071
0.477308
0.473649
0.469666
0.469507
0.47804
0.468578
0.444538
0.449771
0.447443
0.499986
0.499994
0.499972
0.499963
0.499993
0.499983
0.499984
0.499984
0.49999
0.499958
0.499973
0.499963
0.499991
0.499992
0.499982
0.499988
0.483643
0.481082
0.491393
0.487006
0.482492
0.473197
0.474004
0.476706
0.481899
0.485617
0.486454
0.476631
0.491613
0.48921
0.473218
0.486589
0.485445
0.485273
0.5
0.5
0.5
0.5
0.5
0.5
0.5
0.5
0.5
0.5
0.5
0.5
0.5
0.5
0.5
0.5
0.5
0.5
0.5
0.5
0.5
0.5
0.5
0.5
0.5
0.5
0.5
0.5
0.5
0.5
0.5
0.5
0.5
0.5
0.5
0.5
0.5
0.5
0.5
0.5
0.5
0.5
0.5
0.5
0.5
0.5
0.5
0.485682
0.489272
0.486612
0.490031
0.445008
0.453862
0.460701
0.450834
0.453745
0.4847
0.474844
0.485771
0.488564
0.456288
0.480351
0.481097
0.492839
0.492854
0.48895
0.49045
0.490322
0.48427
0.484211
0.475982
0.476098
0.48789
0.479114
0.479022
0.477337
0.5
0.5
0.5
0.5
0.5
0.5
0.5
0.5
0.5
0.5
0.5
0.5
0.5
0.499999
0.5
0.498529
0.498582
0.499396
0.498393
0.5
0.5
0.5
0.5
0.5
0.499997
0.5
0.5
0.5
0.5
0.499672
0.5
0.5
0.5
0.5
0.5
0.5
0.5
0.5
0.5
0.5
0.5
0.5
0.5
0.5
0.5
0.5
0.5
0.491813
0.490525
0.491789
0.492974
0.489296
0.490098
0.494609
0.493579
0.492317
0.490788
0.493109
0.491797
0.492914
0.48844
0.489461
0.490012
0.490704
0.490341
0.257756
0.239133
0.2652
0.265747
0.264848
0.247154
0.254232
0.234778
0.239904
0.259688
0.269987
0.270768
0.260352
0.234519
0.228091
0.189515
0.159396
0.170076
0.17789
0.241459
0.492144
0.492421
0.491544
0.49489
0.494085
0.488724
0.488503
0.487724
0.487287
0.493114
0.49329
0.494117
0.49449
0.482925
0.485451
0.485706
0.489677
0.493337
0.490323
0.499694
0.4997
0.499914
0.499921
0.499688
0.499694
0.499917
0.49991
0.499923
0.499802
0.499344
0.5
0.5
0.5
0.5
0.5
0.5
0.5
0.5
0.5
0.5
0.5
0.495384
0.493892
0.496084
0.496496
0.495735
0.495245
0.493891
0.497307
0.496369
0.495415
0.496242
0.494783
0.498126
0.498047
0.497427
0.5
0.5
0.5
0.5
0.5
0.5
0.5
0.5
0.5
0.5
0.5
0.5
0.5
0.5
0.5
0.5
0.5
0.5
0.5
0.5
0.5
0.499236
0.49922
0.49938
0.49935
0.499442
0.499583
0.499997
0.499995
0.499997
0.499999
0.499997
0.499997
0.499991
0.499863
0.499997
0.499947
0.499868
0.5
0.5
0.5
0.5
0.5
0.5
0.5
0.5
0.5
0.5
0.5
0.5
0.5
0.5
0.5
0.5
0.5
0.5
0.5
0.5
0.5
0.5
0.5
0.5
0.5
0.5
0.5
0.5
0.5
0.5
0.5
0.5
0.5
0.5
0.499826
0.499922
0.499863
0.49992
0.499658
0.499621
0.499978
0.499614
0.499631
0.49996
0.499962
0.499631
0.499616
0.49996
0.5
0.5
0.5
0.499999
0.5
0.5
0.5
0.5
0.5
0.5
0.5
0.324052
0.3191
0.282888
0.361062
0.319311
0.294895
0.305033
0.302072
0.276566
0.315637
0.322797
0.340247
0.342174
0.354241
0.34762
0.499986
0.499989
0.499981
0.499983
0.499982
0.499986
0.499986
0.499986
0.499992
0.499993
0.499993
0.499992
0.499994
0.499991
0.49999
0.499986
0.499993
0.49999
0.499748
0.499612
0.499809
0.499801
0.499824
0.499447
0.499178
0.499293
0.499786
0.499793
0.49961
0.499885
0.499835
0.499415
0.499507
0.499251
0.499101
0.49894
0.499828
0.499833
0.499825
0.5
0.5
0.5
0.5
0.5
0.5
0.5
0.5
0.5
0.5
0.5
0.5
0.5
0.5
0.5
0.5
0.5
0.5
0.5
0.5
0.5
0.5
0.5
0.5
0.5
0.5
0.5
0.5
0.5
0.5
0.5
0.5
0.5
0.5
0.5
0.5
0.5
0.5
0.5
0.5
0.223046
0.0704185
0.285435
0.268842
0.0791989
0.0690328
0.157343
0.238133
0.221206
0.243666
0.20882
0.26145
0.0582977
0.0491708
0.100494
0.0955238
0.192313
0.281067
0.272826
0.290619
0.301878
0.237605
0.205816
0.239891
0.206223
0.283991
0.244871
0.261948
0.196729
0.254345
0.214095
0.198948
0.5
0.5
0.5
0.5
0.5
0.5
0.5
0.5
0.5
0.5
0.5
0.5
0.5
0.5
0.5
0.5
0.5
0.5
0.5
0.5
0.5
0.5
0.5
0.5
0.5
0.5
0.5
0.5
0.5
0.5
0.5
0.5
0.5
0.5
0.5
0.5
0.5
0.5
0.5
0.5
0.5
0.5
0.5
0.5
0.499669
0.499635
0.499583
0.499528
0.499065
0.499517
0.499797
0.499233
0.499716
0.499479
0.499543
0.499443
0.499461
0.499483
0.499506
0.498884
0.498096
0.498071
0.497336
0.49739
0.498596
0.498634
0.497892
0.499384
0.498173
0.498248
0.499294
0.5
0.5
0.5
0.5
0.5
0.5
0.5
0.5
0.5
0.5
0.5
0.5
0.5
0.5
0.5
0.5
0.5
0.5
0.5
0.5
0.5
0.5
0.5
0.5
0.5
0.5
0.5
0.5
0.5
0.5
0.5
0.497088
0.497814
0.498022
0.49725
0.49693
0.496457
0.49653
0.497659
0.49589
0.496412
0.5
0.5
0.5
0.5
0.5
0.5
0.5
0.5
0.5
0.5
0.5
0.5
0.5
0.5
0.5
0.5
0.5
0.5
0.5
0.5
0.5
0.5
0.5
0.5
0.5
0.5
0.5
0.5
0.5
0.5
0.5
0.5
0.5
0.5
0.5
0.5
0.5
0.5
0.5
0.5
0.5
0.5
0.5
0.5
0.5
0.5
0.5
0.5
0.5
0.5
0.5
0.5
0.5
0.5
0.5
0.5
0.5
0.5
0.5
0.5
0.5
0.5
0.5
0.5
0.5
0.5
0.5
0.5
0.5
0.5
0.5
0.5
0.5
0.5
0.5
0.5
0.5
0.5
0.5
0.5
0.5
0.5
0.5
0.5
0.5
0.5
0.5
0.5
0.5
0.5
0.5
0.5
0.5
0.5
0.5
0.5
0.5
0.5
0.5
0.5
0.5
0.5
0.5
0.5
0.5
0.5
0.5
0.5
0.5
0.5
0.5
0.5
0.5
0.5
0.5
0.5
0.5
0.5
0.5
0.5
0.5
0.499999
0.499999
0.499995
0.499995
0.499997
0.5
0.5
0.5
0.499995
0.499979
0.499974
0.499972
0.499972
0.499999
0.499988
0.5
0.499989
0.499978
0.499999
0.5
0.5
0.5
0.5
0.5
0.5
0.5
0.5
0.5
0.5
0.5
0.5
0.5
0.5
0.5
0.5
0.5
0.5
0.5
0.5
0.5
0.5
0.5
0.5
0.5
0.5
0.5
0.5
0.5
0.5
0.5
0.5
0.5
0.5
0.5
0.5
0.5
0.5
0.5
0.5
0.5
0.5
0.5
0.5
0.5
0.5
0.5
0.5
0.5
0.5
0.5
0.5
0.5
0.5
0.5
0.5
0.5
0.5
0.5
0.5
0.5
0.5
0.5
0.5
0.5
0.5
0.5
0.5
0.5
0.5
0.5
0.5
0.5
0.5
0.5
0.499999
0.5
0.5
0.5
0.5
0.499998
0.5
0.5
0.499998
0.5
0.5
0.5
0.499998
0.5
0.5
0.5
0.5
0.5
0.5
0.5
0.5
0.5
0.5
0.5
0.5
0.5
0.5
0.5
0.5
0.5
0.5
0.5
0.5
0.5
0.5
0.5
0.5
0.5
0.5
0.5
0.5
0.486177
0.487707
0.493253
0.494804
0.491399
0.497991
0.497999
0.49529
0.498602
0.498134
0.496416
0.496281
0.495449
0.492197
0.487212
0.490062
0.498059
0.493907
0.497974
0.497938
0.498062
0.492585
0.493794
0.488441
0.496527
0.497357
0.496941
0.497471
0.497583
0.49668
0.496819
0.497685
0.497553
0.497258
0.496196
0.49676
0.497068
0.5
0.5
0.5
0.5
0.5
0.5
0.5
0.5
0.5
0.5
0.5
0.5
0.5
0.5
0.5
0.5
0.454493
0.455112
0.448417
0.459616
0.459111
0.465567
0.465224
0.444645
0.440807
0.454967
0.461478
0.440216
0.456917
0.451046
0.499983
0.499992
0.499931
0.499953
0.499992
0.499992
0.499984
0.499996
0.499932
0.499954
0.499992
0.499996
0.499996
0.499971
0.499996
0.499996
0.499992
0.499928
0.499955
0.499943
0.49988
0.499866
0.499936
0.499933
0.499851
0.499854
0.499515
0.499678
0.499665
0.49963
0.499866
0.499817
0.499917
0.499912
0.499764
0.499865
0.499905
0.499866
0.499871
0.499874
0.5
0.5
0.5
0.5
0.5
0.5
0.5
0.5
0.5
0.5
0.5
0.5
0.5
0.5
0.5
0.5
0.5
0.5
0.5
0.5
0.5
0.5
0.5
0.5
0.5
0.5
0.5
0.5
0.5
0.5
0.5
0.5
0.5
0.5
0.5
0.5
0.5
0.299644
0.275493
0.31317
0.251893
0.205439
0.289137
0.222285
0.28127
0.267998
0.273073
0.183609
0.25045
0.431358
0.427347
0.471699
0.470134
0.398102
0.379052
0.484884
0.484268
0.4854
0.485454
0.486322
0.473639
0.477362
0.477883
0.0820256
0.048939
0.00633341
0.00364562
0.0988917
0.132937
0.228738
0.183447
0.24204
0.159103
0.0917419
0.227637
0.167814
0.172777
0.159503
0.185507
0.220074
0.176869
0.000948126
0.00141879
0.00232239
0.00268605
0.00227493
0.000190633
0.000385334
0.00317026
0.00282656
0.000120247
0.000597219
0.000180679
0.000859789
0.000851403
0.00102195
0.00177516
0.00195826
0.000836377
0.5
0.5
0.5
0.5
0.5
0.5
0.5
0.5
0.5
0.5
0.499999
0.499999
0.499997
0.5
0.499998
0.499998
0.499992
0.499994
0.499992
0.499993
0.499997
0.499995
0.499999
0.499999
0.499991
0.499993
0.499998
0.499987
0.499985
0.499969
0.499974
0.499988
0.499939
0.499982
0.499988
0.499988
0.499937
0.499971
0.499935
0.499971
0.499987
0.499841
0.499836
0.49997
0.499866
0.499965
0.499979
0.499979
0.499972
0.499965
0.499993
0.499994
0.499984
0.499998
0.499987
0.499985
0.499994
0.499995
0.499995
0.499984
0.499985
0.499944
0.499983
0.499984
0.499947
0.499958
0.499981
0.49999
0.499995
0.499984
0.499991
0.499995
0.499993
0.0843336
0.106165
0.119292
0.224188
0.228424
0.0474716
0.0343542
0.054155
0.204659
0.0787981
0.121332
0.102608
0.409137
0.423585
0.477389
0.476824
0.42843
0.425785
0.406141
0.464471
0.464616
0.431899
0.410344
0.499997
0.499996
0.499997
0.499995
0.499993
0.499995
0.499993
0.499991
0.499991
0.499991
0.499993
0.499995
0.499994
0.499995
0.498268
0.496013
0.496552
0.495348
0.485705
0.489296
0.483051
0.495201
0.498031
0.498769
0.490318
0.485412
0.498749
0.492336
0.488376
0.393425
0.37329
0.380467
0.401596
0.435763
0.450091
0.386535
0.448604
0.458187
0.415997
0.396822
0.409758
0.450621
0.43891
0.422657
0.416981
0.419691
0.439092
0.434862
0.445928
0.494315
0.49337
0.491758
0.493634
0.491891
0.494108
0.495035
0.495991
0.496054
0.49192
0.495828
0.493021
0.494337
0.492423
0.48636
0.490407
0.487583
0.481188
0.46445
0.465301
0.484397
0.470523
0.47275
0.32626
0.326515
0.331976
0.231877
0.240237
0.309755
0.243065
0.25627
0.313432
0.3128
0.30391
0.29331
0.485695
0.486778
0.484779
0.484327
0.476811
0.48534
0.476598
0.477964
0.476401
0.480694
0.473481
0.475646
0.473919
0.477265
0.471828
0.472237
0.499063
0.498944
0.498888
0.498761
0.498896
0.498743
0.498671
0.498562
0.498505
0.498506
0.498282
0.498114
0.497356
0.497706
0.497844
0.498204
0.496907
0.497369
0.429064
0.446362
0.475566
0.181163
0.481573
0.487324
0.482464
0.12117