/*--------------------------------*- C++ -*----------------------------------*\
  =========                 |
  \\      /  F ield         | OpenFOAM: The Open Source CFD Toolbox
   \\    /   O peration     | Website:  https://openfoam.org
    \\  /    A nd           | Version:  10
     \\/     M anipulation  |
\*---------------------------------------------------------------------------*/
FoamFile
{
    format      ascii;
    class       volScalarField;
    location    "9";
    object      eff_dif;
}
// * * * * * * * * * * * * * * * * * * * * * * * * * * * * * * * * * * * * * //

dimensions      [0 2 -1 0 0 0 0];

internalField   nonuniform List<scalar> 
75457
(
-0.0427678
-0.0387691
-0.0354022
-0.0319179
-0.0269369
-0.0290726
-0.0384549
-0.0387008
-0.0261394
-0.0201572
-0.023973
-0.0265814
-0.0263777
-0.0239022
-0.005216
-0.00565617
-0.00543111
-0.00564535
-0.00601044
-0.00554888
-0.00509069
-0.00572797
-0.00577869
-0.00616651
-0.00590785
-0.00629085
-0.00596265
-0.00132516
-0.00131163
-0.000782481
-0.000631818
-0.000667916
-0.000706806
-0.00101007
-0.000495366
-0.00142743
-0.00130488
-0.00137614
-0.00164251
-0.000686241
-0.000995805
-0.000708122
-0.00111763
-0.0102058
-0.00974863
-0.00927997
-0.00942185
-0.00976292
-0.00574323
-0.00623123
-0.00657408
-0.00606248
-0.0061616
-0.00625304
-0.00666958
-0.00671078
-0.00639881
-0.00659602
-0.00603251
-0.0062891
-0.00605624
-0.00600624
0.0287932
0.0290735
0.0288084
0.029155
0.0294048
0.0294257
0.0290639
0.0291049
0.0293926
0.029175
0.0288819
0.0291655
0.0291514
0.028817
0.0290391
-0.0121586
-0.0133002
-0.0109877
-0.013877
-0.0151222
-0.00821997
-0.00862591
-0.0106065
-0.0115167
-0.0112794
-0.0105616
-0.00853382
-0.0100926
-0.00831267
-0.00822055
-0.00984317
-0.00831152
-0.00838858
-0.00854962
-0.00858107
-0.00892994
-0.00852077
-0.00835136
-0.00953921
-0.00876865
0.0297308
0.0296206
0.0298806
0.0298973
0.0297648
0.0296156
0.0295345
0.0299846
0.0299863
0.0296025
0.0296128
0.0204431
0.0210995
0.0235463
0.0231217
0.0205057
0.0220713
0.0221037
0.0215818
0.021934
0.0236085
0.0233944
0.0239359
0.0244713
0.0232315
0.0226764
0.0214885
0.0238901
0.022895
0.0120237
0.0119913
0.0114156
0.0122898
0.0118911
0.0134056
0.0130902
0.0129837
0.0129764
0.00614309
0.00568945
0.00624705
0.00579118
0.00523208
0.00573522
0.00575849
0.0048186
-0.00890772
-0.00895083
-0.00834993
-0.00854818
-0.00893732
-0.00859176
-0.00829841
-0.00780624
-0.00626889
-0.00632325
-0.00786348
-0.007587
-0.0071236
-0.00782197
-0.00670575
0.0146031
0.0161895
0.0164277
0.0157702
0.0161869
0.0124966
0.0138697
0.0154173
0.0144404
0.015386
0.0127233
0.0114263
0.0120071
-0.0112322
-0.0117077
-0.0115765
-0.0117795
-0.0115553
-0.0116908
-0.0109992
-0.0116751
-0.0115417
-0.011779
-0.011762
-0.0115809
-0.0115023
-0.0116488
-0.0106234
-0.00934356
-0.0118394
-0.00916489
-0.0095897
-0.0111049
0.00884201
0.0095913
0.00819126
0.00906621
0.00721681
0.00800871
0.0104967
0.0101649
0.00928406
0.00645962
0.00640686
-0.00916548
-0.00901027
-0.00940644
-0.00935971
-0.00931837
-0.00924706
-0.00907828
-0.00891925
-0.00851353
-0.00937264
-0.00912621
-0.00889875
-0.00925767
-0.00884439
0.00380357
0.00290441
0.00328431
0.00160731
0.002156
0.00283055
0.00262886
0.00392014
0.0035114
0.00264373
0.0019952
0.00138904
0.00360021
0.00198822
-0.00844729
-0.00850964
-0.00820707
-0.00817857
-0.00848396
-0.00840891
-0.00853826
-0.00847652
-0.00864457
-0.00816282
-0.00839914
-0.00791432
-0.00855794
-0.00860281
-0.00835144
-0.00833675
-0.00848248
-0.0106278
-0.0104499
-0.010469
-0.0103925
-0.0117114
-0.010303
-0.0101953
-0.00956535
-0.0103469
-0.0108705
-0.00981014
-0.0105784
-0.00941556
-0.00949778
-0.00934984
-0.00940276
-0.00928206
-0.00928428
-0.00954412
-0.00934454
-0.00921988
-0.00941136
-0.00930633
-0.00908326
-0.0092735
-0.00621421
-0.00606807
-0.0062757
-0.00587255
-0.00591024
-0.00575831
-0.00561357
-0.00555431
-0.00557295
-0.00589573
-0.00621618
-0.0060765
-0.00547814
-0.00582811
-0.00580607
-0.000431949
-0.00022695
-0.000217269
-0.000471388
-0.000187504
-0.000212603
-0.000616312
-0.000806306
-0.000101313
7.91439e-05
0.000836506
0.00030266
0.000387361
0.000850325
0.0018628
0.000678102
0.000420474
0.00109818
0.000333662
0.000535879
-2.99097e-05
0.000270841
-0.00554185
-0.00622159
-0.00417803
-0.00444696
-0.00457056
-0.00523035
-0.00598675
-0.00558141
-0.00610628
-0.00579923
-0.00568302
-0.00788046
-0.00797919
-0.00813008
-0.00808452
-0.00802297
-0.00781217
-0.00784084
-0.00818666
-0.00837564
-0.00825639
-0.00847257
-0.0076751
-0.00797028
-0.00802855
-0.00823304
-0.00801862
-0.00809743
-0.0130075
-0.0118214
-0.0112824
-0.0132239
-0.0159168
-0.0153651
-0.0151561
-0.0148817
-0.014527
-0.0136568
-0.0152306
-0.00362679
-0.00409869
-0.00463193
-0.00450547
-0.00418968
-0.00427738
-0.00374165
-0.00462083
-0.00453591
-0.00414596
-0.00407702
-0.00022833
-0.000126183
-0.000319668
-0.000416657
-0.000114396
-0.00011666
-0.0004049
-0.000156775
-0.000523514
-0.000583045
-0.000621026
-0.000231727
-0.00042095
-0.000912815
-0.00090745
-0.00611206
-0.00438132
-0.00749631
-0.00583594
-0.00620843
-0.00849504
-0.00887357
-0.00844586
-0.0087542
-0.00887031
-0.00847391
-0.00924122
0.0477385
0.0525169
0.0411387
0.0438025
0.0465602
0.048561
0.0483125
0.0511398
0.0435909
0.0480299
0.0463812
0.0473556
0.0433148
0.0477946
0.0421933
0.0435752
0.0454974
0.0406021
0.0324606
0.0320106
0.0327124
0.0334057
0.0343236
0.0352537
0.0327048
0.0333584
0.0357529
0.0391629
0.0359329
0.0362081
0.0379483
0.0236279
0.0208649
0.0184293
0.0200832
0.0245081
0.0212115
0.0197884
0.0212475
0.0208827
0.0189755
0.0262135
0.0262157
0.0195112
0.0210479
0.018445
0.0245516
0.0266939
0.0268263
0.0229061
0.0228429
0.0234806
0.0247423
-0.0102394
-0.0106786
-0.0108766
-0.0108853
-0.0109796
-0.0104067
-0.0104691
-0.010597
-0.0107472
-0.010368
-0.0107601
-0.0103791
-0.0104975
-0.0104785
-0.0105666
-0.0105405
-0.0337909
-0.0375827
-0.021082
-0.0285441
-0.0197558
-0.0272331
-0.0250753
-0.0219984
-0.0195758
-0.0253791
-0.0418187
-0.0368217
-0.0241692
-0.0330172
-0.0202163
-0.0218727
0.000350316
0.000193371
0.000356252
0.00119692
0.00157895
0.00217748
3.77186e-06
-0.000331424
0.00132731
0.00130288
0.0021842
0.00183928
0.00156188
0.00148081
0.00132218
0.000670383
-6.66307e-05
0.000751253
0.0316396
0.0358581
0.0344512
0.0308895
0.0322266
0.0350218
0.0384854
0.0375509
0.0326036
0.0385353
0.0402687
0.0384731
0.0346233
0.0313837
0.032182
0.0331015
0.0247526
0.0241173
0.0246227
0.0244014
0.0235847
0.0253233
0.0259054
0.0253042
0.0246666
0.0256287
0.0250673
0.0242567
0.0251001
0.0235348
0.0242072
0.0257266
0.026206
0.0107294
0.0105715
0.0102639
0.010614
0.0105934
0.0106633
0.0108282
0.010864
0.0108589
0.0107333
0.0103792
0.0104416
0.0109162
0.0106105
0.0107337
0.010013
0.0100488
-0.00637165
-0.0073159
-0.00900801
-0.00806654
-0.00699322
-0.00719143
-0.00663593
-0.00669713
-0.00756392
-0.00722376
-0.00873715
-0.00899992
-0.00787319
-0.00677434
-0.0088087
-0.00765938
-0.00771362
-0.00848961
-0.00518501
-0.00532531
-0.00502828
-0.00506382
-0.00458443
-0.00467246
-0.00485335
-0.00482761
-0.00427502
-0.00449314
-0.00469558
-0.00428259
-0.00412793
-0.00462473
-0.00780216
-0.00718247
-0.00808941
-0.00882216
-0.00895102
-0.00841541
-0.00819029
-0.00796903
-0.00781368
-0.00908399
-0.00893871
-0.00889021
-0.00820773
-0.00758678
-0.00795982
-0.00878716
-0.00880273
-0.00904613
0.0190564
0.014807
0.0156344
0.0225135
0.0188342
0.0129281
0.0157856
0.0161541
0.0125963
0.0209878
0.0160149
0.0131785
-0.00899261
-0.00873516
-0.00852977
-0.00831775
-0.00861737
-0.00864529
-0.00712862
-0.00753261
-0.0087704
-0.00879292
-0.00869078
-0.00779488
-0.00767544
-0.00845747
-0.00858854
-0.00844145
-0.00581087
-0.00640091
-0.00530008
-0.00580419
-0.00719679
-0.00718364
-0.00720727
-0.00590214
-0.00569919
-0.00554869
-0.00550286
-0.00655596
-0.00729455
-0.00594702
-0.00549423
-0.00642727
0.00297727
0.00221649
0.00155284
0.00477526
0.00567363
0.00323616
0.00393304
0.000696516
0.00228807
0.00298028
0.00458163
0.00348842
0.00454021
0.00535456
0.00509333
0.00200186
0.00210863
0.00339382
0.00149687
-0.00376287
-0.00285128
-0.00354218
-0.0053616
-0.00444299
-0.00329562
-0.00513821
-0.00470366
-0.00367344
-0.00402495
-0.00383562
-0.00505103
-0.003832
-0.00350877
-0.00193865
-0.0016325
-0.00186708
-0.00244578
-0.00198295
-0.00235705
-0.00212409
-0.00194837
-0.0025019
-0.00186854
-0.00226612
-0.00220696
-0.0028041
-0.00180439
-0.00189546
-0.00185663
-0.00164076
-0.00231119
-0.00555037
-0.00616942
-0.00525332
-0.00390283
-0.00435939
-0.00804526
-0.00550589
-0.00520953
-0.00519693
-0.00630526
-0.00776134
-0.0106348
-0.0108527
-0.011402
-0.0108128
-0.0115861
-0.0121823
-0.0114197
-0.012519
-0.00974119
-0.0096839
-0.0123277
-0.0128497
-0.0126049
-0.0119273
-0.0113455
-0.012677
-0.0116797
-0.0116784
-0.0120606
-0.0118882
-0.0113615
-0.0108361
-0.0109287
-0.01069
-0.010885
-0.0105732
-0.0107257
-0.010761
-0.0106844
-0.0104983
-0.0105207
-0.0107327
-0.0105282
-0.0106764
-0.0105521
-0.0106689
-0.0106054
-0.0106308
-0.00767962
-0.00819417
-0.00979633
-0.00984282
-0.00857301
-0.00914406
-0.00976392
-0.00954229
-0.00871047
-0.00964705
-0.00870267
-0.00461981
-0.00498483
-0.00339253
-0.00320926
-0.00440176
-0.00317086
-0.00355899
-0.0029477
-0.00411815
-0.00383053
-0.0037571
-0.00333008
-0.00392939
-0.00381477
-0.00357797
-0.00346677
-0.00385546
-0.00375458
-0.00313023
-0.00369754
-0.00345707
-0.00385455
-0.00383688
-0.00337402
-0.00337751
-0.00353486
-0.00307412
-0.00345636
-0.00324084
-0.003011
-0.00332379
-0.00293655
-0.003252
-0.00342718
-0.00303551
-0.0071764
-0.00739374
-0.00726378
-0.00721488
-0.00685303
-0.00638956
-0.00726591
-0.00609576
-0.00692237
-0.00574195
-0.00641908
-0.00681801
-0.00703433
-0.00654246
-0.00646233
-0.00780527
-0.00685888
-0.00619648
-0.00597294
-0.00592439
-0.0070953
-0.00719211
-0.00747909
-0.00750249
-0.00675464
-0.00680252
-0.00787602
-0.00750197
-0.00723423
-0.00656386
-0.00676433
-0.00671172
-0.0064813
-0.00683371
-0.00696764
-0.00730493
-0.00633068
-0.00649227
-0.0069158
-0.00732212
-0.00638086
-0.00661347
-0.00787051
-0.00880045
-0.00718584
-0.00784379
-0.00767479
-0.00911165
-0.00710279
-0.00697751
-0.00698243
-0.00777724
-0.00859877
-0.00804351
-0.00833522
-0.00721349
-0.00704212
-0.00793222
-0.00753906
-0.00663575
-0.00622509
-0.00760109
-0.00686981
-0.00772261
-0.00874231
-0.00812675
-0.00774546
-0.00726626
-0.00716862
-0.00815799
-0.00833732
-0.00895729
-0.00767565
0.0199162
0.0205296
0.0214849
0.0203572
0.0211896
0.0199948
0.021056
0.0198313
0.0203796
0.0214147
-0.0100859
-0.00995665
-0.00967743
-0.00973436
-0.0102782
-0.0101746
-0.00977294
-0.00988517
-0.0102506
-0.00961745
-0.00996829
-0.00973959
-0.00972057
-0.010199
-0.0097624
-0.00999457
-0.0101405
-0.0110936
-0.0104957
-0.0114187
-0.0111847
-0.010863
-0.0115922
-0.0103835
-0.0111839
-0.0103294
-0.0101397
-0.011147
-0.0114394
-0.0102051
-0.0112158
-0.0113813
-0.0108895
-0.0105338
-0.0115642
-0.0108345
-0.0108705
0.0101524
0.0105624
0.0112697
0.0106611
0.0103362
0.0115006
0.00803058
0.009578
0.00980613
0.00950288
0.00880941
0.0109381
0.0103642
0.0109259
0.0100355
0.00961554
-0.0153758
-0.01678
-0.0158975
-0.0151845
-0.0152937
-0.0135934
-0.0141869
-0.0151985
-0.0153932
-0.0160636
-0.0122581
-0.0134388
-0.0149477
-0.0119503
-0.0129386
-0.0109864
-0.0106495
-0.0107489
-0.0117798
-0.0118053
-0.0124903
-0.0108065
-0.0102352
-0.0100635
-0.0111283
0.0100127
0.00896824
0.0086207
0.00873018
0.00870247
0.00724436
0.0069242
0.0063476
0.00643222
0.0069708
0.00706852
0.00616193
0.00783309
0.00698769
0.00867967
0.00879213
0.00688361
0.00798275
0.00756151
-0.00948433
-0.00940928
-0.0101587
-0.00944168
-0.0109673
-0.00965029
-0.00917234
-0.00972856
-0.00998776
-0.00949414
-0.0094441
-0.0100793
-0.0103852
-0.0108394
-0.0102389
-0.00976652
-0.00955756
-0.0104455
-0.0102314
-0.00874902
-0.00967728
-0.00923589
-0.00915028
-0.00903706
-0.00946278
-0.00881354
-0.00856597
-0.00978891
-0.00985504
-0.0101553
-0.00951046
-0.00990458
-0.00987433
-0.010152
-0.0100568
0.0189414
0.019502
0.0187593
0.0185816
0.0197563
0.0206888
0.0205856
0.0195934
0.0195482
0.0203955
0.0206009
0.0196441
0.0206133
0.0211377
0.0218498
0.0212574
-0.013489
-0.0155181
-0.0122205
-0.0123641
-0.0157075
-0.0182753
-0.00926563
-0.0102416
-0.0121609
-0.014473
-0.0118834
-0.0126728
-0.0142115
-0.0180095
-0.0163901
-0.0106962
-0.0147596
-0.0122613
-0.0150004
-0.0173881
0.0562941
0.0503145
0.0460346
0.0457042
0.0547722
0.0560523
0.0495506
0.0543629
0.048548
0.0505533
0.0481323
0.0486222
0.0454139
0.0452789
0.0510042
0.0189252
0.0175929
0.0222439
0.0238555
0.0217039
0.0186901
0.0240971
0.0206521
0.023075
0.0263524
0.0252465
0.0264901
0.028269
0.0260399
-0.0160999
-0.0168385
-0.0163931
-0.0171473
-0.0152284
-0.015495
-0.0138603
-0.0127129
-0.0150831
-0.0150262
-0.0131945
-0.0127224
-0.0155219
-0.0137819
-0.0134589
-0.0140859
-0.00647891
-0.00617812
-0.00627041
-0.00642307
-0.00614768
-0.00648069
-0.00614643
-0.00650609
-0.00667637
-0.00599549
-0.00602064
-0.00600853
-0.00659408
-0.00641968
-0.00605711
-0.00626827
-0.00619963
-0.00655973
-0.00634614
-0.010979
-0.010842
-0.0105019
-0.0114424
-0.0115346
-0.011264
-0.0105707
-0.0114755
-0.0113191
-0.00986212
-0.0104946
-0.0103998
-0.0106796
-0.010394
-0.0116097
-0.0112899
-0.0103493
-0.0107793
-0.0105144
-0.0106223
-0.0103236
-0.0103872
-0.0108156
-0.0102486
-0.0104015
0.0282892
0.0274347
0.0274876
0.0279615
0.0281411
0.0277234
0.0274976
0.0275436
0.0282619
0.0280446
0.0281136
0.0278488
0.0279651
0.0277321
0.0280652
0.0281251
0.0281267
0.0279118
0.0275528
0.0282125
-0.00827948
-0.00908566
-0.00822198
-0.00871058
-0.00819623
-0.00789326
-0.00804437
-0.00881229
-0.00782091
-0.00811867
-0.00831887
-0.00850821
-0.00550862
-0.00558901
-0.00513979
-0.00498775
-0.00478069
-0.00556399
-0.00555537
-0.00569605
-0.00543007
-0.00497722
-0.00494223
-0.00525125
-0.00531849
-0.00492775
-0.00509039
-0.00505386
-0.00522731
-0.00508752
-0.00336644
-0.00316747
-0.00341975
-0.003156
-0.00331605
-0.00367982
-0.00376415
-0.00389603
-0.00396996
-0.00321023
-0.00368035
-0.00332671
-0.00401129
-0.00383608
-0.00351552
-0.0033499
-0.00401004
-0.0036542
-0.00327484
-0.00263978
-0.00277904
-0.00296327
-0.00209829
-0.00268698
-0.0024031
-0.00219466
-0.00327139
-0.00269266
-0.00332312
-0.00331142
-0.00241334
-0.00234244
-0.00258016
-0.00341869
-0.00342568
-0.00677159
-0.00646662
-0.00697213
-0.00662688
-0.00589629
-0.00575274
-0.00588851
-0.00703867
-0.00729698
-0.0104212
-0.0102143
-0.0102157
-0.0104065
-0.0105564
-0.0105538
-0.0103562
-0.0106311
-0.0103076
-0.0102551
-0.0105227
-0.0103194
-0.00526043
-0.00508608
-0.00529056
-0.00528151
-0.00520898
-0.00541173
-0.00534804
-0.00554391
-0.00558184
-0.00534896
-0.00584294
-0.00574768
-0.00572098
-0.00582408
-0.00563603
-0.0058025
0.0285342
0.0287228
0.028484
0.0282155
0.0278396
0.0278724
0.0274335
0.0273765
0.0276642
0.0282183
-0.00792763
-0.00770763
-0.00794955
-0.00770754
-0.00802881
-0.00789969
-0.00816794
-0.00812633
-0.00827928
-0.00827546
-0.00804771
-0.00787865
-0.00808802
-0.0084192
-0.008361
-0.00814085
-0.00810623
-0.00804968
-0.00626045
-0.00657074
-0.00617076
-0.00627628
-0.00622244
-0.00618604
-0.00642323
-0.00620333
-0.00637313
-0.00682712
-0.00657554
-0.00662229
-0.00637929
-0.00657393
-0.00613303
-0.00624901
-0.00645425
-0.00623862
0.00720976
0.00658071
0.0060092
0.0069807
0.00513975
0.0046025
0.00759648
0.00707378
0.00576748
0.00727517
0.00628953
0.00537544
0.00611437
0.00614768
0.0286318
0.0285322
0.0284017
0.0282314
0.0286858
0.028266
0.0280838
0.0281185
0.0284314
0.0282428
0.0284292
0.028555
0.0281139
0.0280827
0.0279708
0.0280118
0.0283977
0.0281904
0.0283442
0.0281063
0.041293
0.0398442
0.0332167
0.0363659
0.0256923
0.0300706
0.015485
0.0312119
0.0314217
0.0287882
0.0344578
0.0244877
0.0360513
0.0410821
0.0370158
0.0444074
0.0263137
0.0374623
0.0329822
-0.0126034
-0.013571
-0.00930191
-0.00823713
-0.0132447
-0.0163287
-0.0162795
-0.0190786
-0.00905671
-0.00922802
-0.021548
-0.0180473
-0.0116288
-0.0151264
-0.0178754
-0.0122605
-0.0126558
-0.0189386
-0.0151593
-0.015814
-0.00166475
-0.00230847
-0.00215826
-0.00236963
-0.00272295
-0.00196159
-0.00332437
-0.00255022
-0.00264168
-0.00256829
-0.00237628
-0.00233046
-0.00308756
-0.00222063
-0.00334022
-0.00316806
-0.00308479
-0.00300912
-0.00232877
-0.0101485
-0.0107453
-0.0121268
-0.0124303
-0.0126432
-0.01217
-0.0105859
-0.0109961
-0.0118903
-0.00933835
-0.0110433
-0.011563
-0.010843
-0.0115368
-0.0115693
-0.0115372
0.0305624
0.0305134
0.0303796
0.0304561
0.0307264
0.030743
0.030621
0.0306482
0.0304591
0.0303258
0.0308393
0.0306154
0.0307811
0.0307774
0.0304061
0.0303256
0.0304909
0.0306593
0.0307905
0.0303903
-0.00172764
-0.0018752
-0.0013104
-0.000892524
-0.00382787
-0.00391508
-0.00434409
-0.00520058
-0.00310592
-0.00171178
-0.00133774
-0.00383154
-0.004178
-0.00470501
-0.00543251
-0.00531769
-0.00299858
-0.00481623
-0.00456869
-0.00350966
0.0306296
0.0305041
0.0305866
0.0306294
0.0306188
0.0306441
0.0305681
0.0306959
0.0307616
0.0307736
0.0308425
0.0305449
0.0307103
0.0306889
0.0307945
0.0307781
0.030659
-0.00575421
-0.00571361
-0.0058232
-0.00608117
-0.00602657
-0.00575022
-0.00551186
-0.00584819
-0.00595157
-0.006244
-0.00555079
-0.00512834
0.0286308
0.0284502
0.0290032
0.0290076
0.0287589
0.0287085
0.0283579
0.0285726
0.0288068
0.028966
0.0290069
0.0286364
0.02846
0.0285793
0.0283823
0.0285805
0.0283745
0.0286448
0.0287108
0.0283691
0.0286147
0.0220576
0.0216176
0.0217129
0.0221331
0.0221831
0.0213466
0.0217417
0.0233978
0.0235747
0.0233638
0.0226551
0.0223028
0.0219232
0.0218506
0.0218951
0.0225772
0.0224768
0.0224679
0.00777719
0.00803231
0.00811779
0.00770194
0.00796116
0.00866248
0.00831005
0.00834956
0.00809461
0.00924552
0.00907855
0.00932353
0.00915507
0.00822888
0.0079601
0.0489734
0.0439047
0.0381047
0.0395413
0.0458793
0.0438849
0.0552715
0.0407252
0.047617
0.042528
0.0548892
0.0546449
0.0503759
0.0437044
-0.00388034
-0.00356823
-0.00407308
-0.00452402
-0.00451531
-0.00465974
-0.00390727
-0.00411252
-0.00411914
-0.00394049
-0.00450641
-0.00426518
-0.00395701
-0.00349664
-0.00360822
-0.00401579
0.0245257
0.022483
0.0241026
0.0223146
0.0219898
0.0223697
0.0227026
0.0227585
0.0235996
0.0240082
0.0264383
0.0259309
0.0249707
0.0272425
0.0278296
0.0252653
0.026303
0.0298474
0.0298026
0.0293957
0.0294985
0.0295985
0.0296573
0.0298772
0.0299164
0.0293586
0.0294791
0.0298255
0.0298498
0.0298073
0.0296802
0.0296377
0.0298045
0.0296053
-0.0169862
-0.0145449
-0.0143816
-0.0182183
-0.0138434
-0.0191801
-0.0253116
-0.0136465
-0.0165769
-0.0171463
-0.0161258
-0.0169959
-0.0183769
-0.0144765
-0.0168268
-0.0167891
-0.013657
-0.0148966
0.0166949
0.0163565
0.0179901
0.0176662
0.0169345
0.0156393
0.01603
0.0176001
0.0181057
0.0177022
0.0174449
0.0177618
0.016052
0.0158023
0.015164
0.0170023
0.0158492
0.0164665
0.0154396
0.0169573
0.0162557
0.0160173
-0.00664914
-0.00687849
-0.00670538
-0.00657564
-0.00586127
-0.00600669
-0.00463476
-0.00496826
-0.0061385
-0.00701559
-0.00660454
-0.0063577
-0.00518561
-0.00547121
-0.00513897
-0.00507394
-0.00466141
-0.00521363
-0.00453295
-0.00460538
-0.00505773
-0.00489693
-0.00465903
-0.00496943
-0.00526093
-0.00504376
-0.00514435
-0.0043928
-0.00442744
-0.00432886
-0.00450093
-0.00447717
-0.00518321
-0.00513179
-0.00509351
-0.00480039
-0.0044118
-0.00488426
-0.0059508
-0.00584472
-0.00590828
-0.00605345
-0.00628087
-0.00634057
-0.00583828
-0.00621617
-0.00579582
-0.00598527
-0.00570758
-0.00620723
-0.005389
-0.00571014
-0.00550345
-0.00627721
-0.00588817
-0.00552449
-0.00625485
-0.00799578
-0.00813497
-0.00760697
-0.00928242
-0.00712705
-0.00565614
-0.0090484
-0.00910737
-0.00309794
-0.00402328
-0.00198606
-0.00604487
-0.00361669
-0.00623425
-0.00559938
-0.00773858
-0.00722322
-0.00500577
-0.004751
-0.00102173
-0.00321778
-0.00215168
0.00506554
0.00347931
0.00280598
0.0032921
0.00386004
0.0054622
0.00533758
0.00434224
0.00362046
0.00281231
0.00318389
0.00329843
0.00296641
0.00400544
0.00386383
0.00494727
0.00374308
0.0030073
0.00364316
-0.00889733
-0.00845959
-0.00865294
-0.00870792
-0.00883933
-0.00887515
-0.009057
-0.0093617
-0.00886643
-0.0094447
-0.00895152
-0.00876879
-0.00881329
-0.00874333
-0.00880346
-0.00875888
-0.00880823
-0.00561774
-0.00577653
-0.0071144
-0.00667028
-0.00643515
-0.00670072
-0.00687529
-0.00658798
-0.0060255
-0.00675608
-0.00623876
-0.00678761
-0.00645722
-0.00655282
-0.00356401
-0.00417915
-0.00449141
-0.0046742
-0.00401055
-0.00442941
-0.00347813
-0.00455583
-0.00473641
-0.00507756
-0.00509663
-0.00344481
-0.00456067
-0.0047338
-0.00460319
-0.00377648
-0.00470123
-0.000204719
-0.000458179
-0.000275036
-5.90995e-05
-0.000182902
-0.000303123
-0.000329831
-0.000344816
-0.000121239
-0.000276693
-0.000537525
-0.000542913
-0.000811269
-0.000687884
-0.000207415
-0.000376895
-0.000793638
-0.000725402
-0.000737994
-0.00069552
-0.000345632
-0.000129994
-0.000723427
-0.000105996
-0.000315068
-0.000321005
-0.000476877
-0.000646319
-0.000363855
-0.000326392
-0.000330358
-3.19247e-05
-0.000104146
-0.000369098
-0.000699196
-0.000296357
-0.000350433
-0.000651916
-0.000181664
-0.000335664
-0.014203
-0.0150681
-0.0175729
-0.0186595
-0.0179485
-0.0188758
-0.0153534
-0.0162527
-0.0166901
-0.0130196
-0.0147027
-0.0154397
-0.0173043
-0.0166034
-0.0166333
-0.0154448
-0.0151971
-0.00106923
-0.00106747
-0.00146079
-0.000165304
-0.000807913
-0.00168633
-0.00195109
-0.00010015
-0.000385947
-0.00134328
-0.00900876
-0.00894287
-0.0090262
-0.0092285
-0.00862798
-0.0086138
-0.00895505
-0.00918034
-0.00920699
-0.00914309
-0.00886562
-0.00863239
-0.00865262
-0.00879865
-0.00863902
-0.00895007
-0.00879909
-0.00900626
-0.00814494
-0.0081224
-0.00822541
-0.00787545
-0.00828128
-0.00797167
-0.00803306
-0.00793394
-0.00766345
-0.00777109
-0.00833222
-0.00841342
-0.00811931
-0.000682927
-0.000419803
-0.000847583
-0.000529474
-0.000958958
-0.00131392
-0.000991527
-0.00033664
-0.000261504
-0.000658957
-0.00111112
-0.00105045
-0.000265263
-0.00026589
-0.00855464
-0.00854606
-0.00876994
-0.00870507
-0.00853611
-0.00862341
-0.00874453
-0.00860944
-0.00862918
-0.00869367
-0.00865927
-0.00881237
-0.00869276
-0.00857043
-0.00897281
-0.0199009
-0.0191082
-0.0186332
-0.0189479
-0.0186368
-0.0178977
-0.0214915
-0.020401
-0.0197707
-0.0204073
-0.0207071
-0.0204425
-0.0191768
-0.018458
-0.0189572
-0.0199188
-0.0198496
-0.0201758
0.0296138
0.0296094
0.0298613
0.0292146
0.0293274
0.0292875
0.0293957
0.0292181
0.0295345
0.029513
-0.00918006
-0.0092198
-0.00920539
-0.00942863
-0.00915193
-0.00943673
-0.00913103
-0.0092139
-0.00901872
-0.00910397
-0.00911537
-0.00934891
-0.00941013
-0.0092285
-0.00944918
-0.00911459
-0.00922111
-0.00925258
-0.0090419
-0.0091979
-0.0092488
-0.00923452
-0.00530092
-0.00528382
-0.00566946
-0.00583113
-0.00495347
-0.00478313
-0.00557959
-0.00541865
-0.00538679
-0.00506283
-0.00477359
-0.00491226
-0.00552326
-0.0052109
-0.0050188
-0.00509334
-0.00533282
-0.00491676
0.031254
0.0322255
0.0334798
0.0321745
0.0307738
0.0332385
0.0314067
0.0323509
0.0286748
0.030565
0.0321275
0.0293156
0.0296343
0.0283821
0.0271177
0.0302333
0.0280559
0.0269154
0.0279839
0.0316398
0.0294115
0.0285176
0.02587
0.031185
0.0319605
0.0333914
0.0328372
0.0371287
0.0363246
0.0337142
0.0362023
0.0295584
0.0286734
0.0370189
0.0379376
0.0347496
0.0372419
0.0304813
0.0305971
0.0306508
0.0304604
0.030571
0.0304614
0.0306408
0.0305836
0.0304285
0.030565
0.0303714
0.0304065
0.0306345
0.0305685
0.0305737
0.0306372
0.0300992
0.0258708
0.0254348
0.027756
0.0288896
0.0307636
0.0287713
0.0288705
0.0251399
0.0244459
0.0290856
0.0269726
0.0285093
0.0257066
0.0277801
0.0255783
0.0253048
0.026524
0.0270966
0.0260407
0.0267258
0.0277997
0.0276269
0.0269378
0.0261898
0.027841
0.0282239
0.0276889
0.0227434
0.0223416
0.0245338
0.0259561
0.0141121
0.0131347
0.023123
0.0230274
0.013801
0.0160337
0.0185334
0.0185859
0.0201485
0.0176399
0.0153249
0.0131776
0.0284949
0.0276602
0.0280182
0.0285347
0.0277349
0.0290571
0.0286533
0.0278544
0.0278685
0.030698
0.0302699
0.0299434
0.0293934
0.0282845
0.0294189
0.0288542
0.0299014
0.0292885
0.0286424
0.0301865
0.00857489
0.0103318
0.00509498
0.00219059
0.00343208
0.00619422
0.0134349
0.00524111
0.00915875
0.00911678
0.00282266
0.00786914
0.00857363
0.00545309
0.00845778
0.0150591
0.0151571
0.0136048
0.0116169
0.00996296
0.0189376
0.0160817
0.0161084
0.0132776
0.0172688
0.0173794
0.0173414
0.0146702
0.0132398
0.0143551
0.0144994
0.0152209
0.0155583
0.0297005
0.0297517
0.0295483
0.0294439
0.0301295
0.0301048
0.0296483
0.0294883
0.0302874
0.0302908
0.0297107
0.030003
0.0302715
0.0302359
0.0301256
-0.011105
-0.0107556
-0.0112515
-0.0112644
-0.011779
-0.0107555
-0.010876
-0.0125549
-0.012172
0.0322585
0.0313858
0.0303839
0.0303383
0.0310642
0.0304687
0.0326903
0.0301394
0.0339149
0.0324823
0.0302756
0.0321299
0.032759
0.0331011
0.0335794
0.0293802
0.0296861
0.0314588
0.0336061
0.0322783
0.0298615
0.030734
0.00417227
0.0048726
0.0042892
0.00227012
0.00331269
0.00428731
0.00121819
0.00250068
0.00279674
0.000720691
0.00189436
-0.000218662
0.000722619
-0.000370064
-0.000813559
-9.46053e-05
0.00112954
0.00274257
-0.0011268
0.00160828
0.0285516
0.0268929
0.0315715
0.0271331
0.028994
0.0355429
0.032835
0.0289832
0.0327599
0.028188
0.030608
0.0364584
0.0342824
0.0350365
0.0384898
0.0318271
0.0312026
0.0294401
0.0339289
0.0278684
0.0310629
0.0288252
0.032601
0.0370788
0.0379846
0.0360245
-0.0082834
-0.0091792
-0.00871018
-0.00826193
-0.00866612
-0.0090661
-0.00886753
-0.00856295
-0.00949713
-0.00854188
-0.00867987
-0.00893175
-0.00841893
-0.00829459
-0.00822615
-0.00856672
-0.00839633
-0.0089255
-0.00871067
-0.00823269
-0.00830503
-0.00836156
-0.00834205
-0.00856588
-0.00833493
-0.00856756
-0.0069893
-0.00676377
-0.00745531
-0.00794786
-0.00691372
-0.00712432
-0.00687647
-0.00610367
-0.00788969
-0.00539843
-0.00773885
-0.00658282
-0.0061308
-0.00668838
-0.00751477
-0.00754458
-0.00708662
-0.00682064
0.0108261
0.0103507
0.00698254
0.00886723
0.00757525
0.00567549
0.00239977
0.00689736
0.00717929
0.00483848
7.41618e-05
0.00368305
0.00512549
0.0258197
0.0266146
0.0269563
0.0255946
0.0272658
0.0270382
0.0274369
0.026579
0.0267041
0.0257111
0.0258746
0.0277716
0.02715
-0.0119243
-0.0117527
-0.0127202
-0.0121261
-0.0121861
-0.0128071
-0.0141112
-0.0136245
-0.0149957
-0.0128379
-0.0130105
-0.0128218
-0.0140019
-0.0106415
-0.00928457
-0.00914289
-0.00956411
-0.00971301
-0.0102537
-0.0101707
-0.0103795
-0.00918252
-0.00921767
-0.00978073
-0.00919486
-0.00884799
-0.00923986
-0.00926016
-0.00827828
-0.00812414
-0.00825006
-0.00814619
-0.00818124
-0.00817075
-0.00807904
-0.00815855
-0.00800384
-0.00827311
-0.00813856
-0.00836855
-0.00813073
-0.00813936
-0.00797252
-0.00795944
-0.00947709
-0.00913871
-0.00911644
-0.00897918
-0.0090611
-0.00897433
-0.00896456
-0.00930138
-0.00902118
-0.00895499
-0.00916874
-0.00915582
-0.00911738
-0.0096588
-0.00696537
-0.00849314
-0.00871741
-0.00663322
-0.00787675
-0.00817575
-0.0089176
-0.00666424
-0.00641438
-0.00712917
-0.00735426
0.0233212
0.0248847
0.0239809
0.0251283
0.0243757
0.0252583
0.0243709
0.0236219
0.0247988
0.0238936
0.0252317
0.0230676
0.0246158
0.0329589
0.0358571
0.0382492
0.0465501
0.0443974
0.032892
0.0500878
0.0492526
0.0363545
0.0419646
0.0345004
0.036649
0.0450944
0.0490388
0.0517901
0.0399822
0.0418257
0.0386567
0.0483387
0.0463162
0.0444744
0.041511
0.0339533
0.0340284
0.0338871
0.0326375
0.0323971
0.0311059
0.0315473
0.0319413
0.0313142
0.030267
0.0303751
0.0203407
0.0196679
0.0194135
0.018978
0.021448
0.0209428
0.0192883
0.020679
0.0198866
0.018987
0.0181863
0.0184308
0.0201338
0.0215674
0.0217535
0.0190137
0.0184542
0.0206959
0.0179057
0.0319846
0.0322715
0.0321593
0.0321558
0.0328978
0.032727
0.0325137
0.0323474
0.0323434
0.0327476
0.0335014
0.0332119
0.033644
-0.0102921
-0.00599798
-0.0033426
-0.00726281
-0.00537742
-0.00103308
-0.00117135
-0.00089727
0.000149322
-0.00417994
-0.00184887
-0.0102658
-0.0136052
-0.00442754
-0.00121024
-0.00780042
-0.0051581
-0.013764
-0.00856078
-0.0144205
-0.00737228
-0.00824907
-0.00806203
-0.00832231
-0.00832653
-0.00797412
-0.008166
-0.00835501
-0.00862123
-0.00833412
-0.00829185
-0.00862894
-0.00844184
-0.00821423
-0.00831348
-0.00826448
-0.00825469
-0.00795215
-0.00836114
-0.00885369
-0.00979509
-0.00841767
-0.00783367
-0.00814513
-0.00925369
-0.00861822
-0.0087778
-0.00771889
-0.00861887
-0.00974534
-0.0111591
-0.00901219
-0.00865539
-0.00740081
-0.00593857
-0.00787336
-0.00710641
-0.00623833
-0.0080081
-0.00888711
-0.00700691
-0.00590123
-0.00698175
-0.00585822
-0.00724632
-0.00625251
-0.00339663
-0.00390921
-0.00417319
-0.00403252
-0.00442152
-0.0117862
-0.0139543
-0.0125192
-0.0138966
-0.0182561
-0.0117746
-0.0154788
-0.0187116
-0.018121
-0.0222281
-0.0232659
-0.0200114
-0.0195855
-0.0201092
-0.0157464
-0.00252606
-0.00305482
-0.00318142
-0.0042166
-0.0035447
-0.00330478
-0.00364986
-0.0031085
-0.00355392
-0.00226911
-0.00209238
-0.00349976
-0.00348319
-0.00269261
-0.00142276
-0.00238516
-0.00327069
-0.00255936
0.0149457
0.0128282
0.00831579
0.0156817
0.00162239
-0.00920529
0.0150993
0.00485672
0.0142349
0.00806708
0.00912352
-0.0223404
-0.0154504
-0.0344864
0.00234506
0.00183416
-0.000876
-0.0120399
-0.00412463
0.00185534
-0.019275
-0.0188352
-0.0189241
-0.0173994
-0.0177767
-0.0166388
-0.0165227
-0.01632
-0.0177276
-0.0179246
-0.0159147
-0.0165789
-0.0170938
-0.016184
-0.0120078
-0.0103841
-0.011169
-0.0128041
-0.00863114
-0.00935085
-0.0106885
-0.0128164
-0.010484
-0.0101528
-0.0128065
-0.0116115
-0.00791033
-0.0086385
-0.00781524
-0.00843748
-0.00847071
-0.0087826
-0.00748922
-0.00857774
-0.00775914
-0.0104603
-0.0137099
-0.00907913
-0.0146606
-0.0127194
-0.0146621
-0.0140222
-0.00487541
-0.00539857
-0.00514211
-0.00730123
-0.00922098
-0.00956549
-0.0113344
-0.0114877
-0.00633113
-0.00904034
-0.00649348
-0.00664676
-0.00363946
-0.00535429
-0.00551161
-0.00504434
-0.00190966
-0.00204308
-0.0031002
-8.11627e-05
-9.61592e-05
-0.00342669
-0.00560971
-0.00265856
-0.00155451
-0.000145275
0.00038946
-0.0040411
-0.0015591
-0.00189819
-0.00339908
-0.00213235
0.0122519
0.0128628
0.00996893
0.0103411
0.0129518
0.0110732
0.0106387
0.0112494
0.0117917
0.0112081
0.0101779
0.01078
0.0108774
0.00996508
0.012794