/*--------------------------------*- C++ -*----------------------------------*\
  =========                 |
  \\      /  F ield         | OpenFOAM: The Open Source CFD Toolbox
   \\    /   O peration     | Website:  https://openfoam.org
    \\  /    A nd           | Version:  10
     \\/     M anipulation  |
\*---------------------------------------------------------------------------*/
FoamFile
{
    format      ascii;
    class       volScalarField;
    location    "9";
    object      k;
}
// * * * * * * * * * * * * * * * * * * * * * * * * * * * * * * * * * * * * * //

dimensions      [0 2 -2 0 0 0 0];

internalField   nonuniform List<scalar> 
75457
(
2.02562
2.30386
1.39993
0.766206
1.44595
1.54876
1.78186
1.58847
0.486293
0.469898
0.412453
1.2466
1.10023
0.50753
0.0809512
0.0716384
0.0188396
0.0459233
0.0583781
0.012619
0.0276588
0.0230905
0.0781437
0.0796143
0.0482022
0.0935876
0.0938606
0.0694714
0.0684226
0.0832608
0.0573093
0.086742
0.0902958
0.0443215
0.0418712
0.0525558
0.0451769
0.0968283
0.0899432
0.0516502
0.0576256
0.0497655
0.0479417
0.0301754
0.0498626
0.0139287
0.0095441
0.0235301
0.589582
0.182622
0.370438
0.524267
1.23614
0.366025
0.212241
0.231503
0.956325
0.922299
0.791385
1.31086
1.07005
0.657927
0.454228
0.322124
0.0559635
0.330412
0.089366
0.376623
0.485186
0.908796
0.464331
0.988541
0.363451
0.0294288
0.453771
0.129611
0.137249
1.93139
1.78794
1.21508
1.44534
1.62907
1.98796
1.48637
0.816088
0.807976
0.955514
1.09371
2.10719
1.40085
1.59526
1.15325
1.65335
1.36719
0.906222
0.33152
0.359129
0.394345
1.72281
0.835841
0.796654
1.23732
0.116161
0.0638702
0.0401565
0.0557716
0.186919
0.0406894
1.07556
0.310925
0.376911
0.778329
0.856774
0.701126
0.0697556
0.834178
1.28297
0.457225
0.447965
1.53531
0.0189962
0.0724846
0.0768932
0.186314
0.445342
0.271039
0.843669
0.440426
0.846732
0.0932549
0.16934
0.901931
0.272793
0.586104
0.518468
0.867431
0.360272
0.742729
0.70961
1.30285
0.134083
0.264222
0.458932
0.150703
0.187626
0.649738
0.586394
0.523236
1.21931
0.696427
1.79901
1.10325
0.279996
0.196532
0.611477
0.979051
0.622899
1.30906
0.410439
0.871255
1.36026
0.310567
0.993388
0.00522557
0.00544141
0.00562305
0.00547291
0.00558195
0.00503072
0.00500227
0.00519236
0.00556409
0.00511187
0.00532629
0.00518074
0.00504948
0.682843
0.726589
0.875209
1.11443
0.976098
1.1823
0.697594
0.908567
1.42703
0.525732
0.725764
0.85367
1.34814
2.80493
0.939876
0.557302
0.81793
0.915163
0.626938
1.36737
0.107415
0.247656
0.188554
0.14334
0.093869
0.576999
0.723506
0.747272
0.479293
0.526309
0.903242
1.5131
1.46805
1.47905
1.18627
1.18999
1.54751
1.70682
1.05904
1.02161
1.76712
1.13765
1.8746
1.84066
1.66556
0.91718
0.945077
1.28644
0.886608
0.955371
1.83275
0.895247
0.834028
0.972531
0.232982
0.218498
1.25937
0.662745
0.883124
0.757527
1.12509
0.400797
0.43193
0.460875
0.471214
1.0236
1.19507
0.891668
1.21397
0.945195
0.720754
0.868011
1.13127
1.57086
1.07403
1.2275
0.681136
1.11696
0.710978
0.788879
0.419806
0.23354
0.329991
0.0526846
0.127766
0.149997
0.407338
0.360043
0.901673
1.54626
1.09593
2.03642
1.41217
1.38221
1.59171
1.3181
0.801621
0.831645
0.883493
0.754634
0.956425
0.890591
1.18488
0.854167
1.0651
1.03126
0.968317
0.917259
0.77528
0.848194
0.684294
0.280744
0.31948
0.497978
0.416214
0.473743
0.732223
0.965004
1.05724
1.30651
1.10411
0.920107
0.930915
1.13548
0.956706
0.452703
1.14626
0.281773
0.290534
0.288329
0.23864
0.306702
0.303319
0.582514
0.294286
0.317843
0.327889
0.303
0.588884
0.84737
0.795664
0.631165
0.483879
0.569056
0.493616
0.405522
0.420785
0.447923
0.131737
0.501996
0.433728
0.449906
0.96399
1.07581
0.588715
0.551394
1.0863
1.25504
0.531905
0.556325
1.15753
1.08646
1.82916
1.07226
1.05053
1.65532
0.616446
0.666417
0.656095
0.549158
0.821173
0.749528
0.922519
0.90634
0.691053
0.457151
0.766831
0.525161
1.04978
1.16024
1.28159
2.25532
0.857669
0.726888
1.36454
1.4569
1.44991
1.38397
0.374409
0.359127
0.436071
0.455709
0.672136
0.557759
1.07999
0.579526
0.634425
0.87136
1.51007
1.06935
0.974849
0.911805
0.988408
0.545694
0.52575
0.516643
0.900246
0.721114
1.23808
1.18861
0.867135
1.06892
0.336107
0.299255
0.768607
0.00403639
0.00425398
0.00376145
0.00374666
0.00420268
0.00431373
0.00398679
0.0042849
0.00409565
0.00423727
0.00378406
0.00373635
0.00380282
0.00389278
0.00377865
0.00383981
0.00364104
0.00371514
0.00391358
0.00393646
0.0038146
0.00358119
0.00354243
0.00352581
0.00390471
0.00384227
0.00374186
0.00354265
0.00348665
0.00369574
0.00374303
0.00388316
0.00390855
0.00368823
0.00370738
0.00382191
0.00378215
0.00374183
0.0037846
0.00388006
0.00387482
0.00373903
0.003817
0.00375388
0.00376006
0.00371946
0.00378388
0.003881
0.0040112
0.00373483
0.00386214
0.0038645
0.00380657
0.187168
0.0725204
0.0768801
0.0706391
0.0748992
0.154913
0.0652968
0.0788493
0.0538023
0.181928
0.0552384
0.0534692
0.0573407
0.0597082
0.0466904
0.160091
1.48901
0.933508
0.983963
0.949507
0.400281
0.424338
0.817861
0.89396
0.392517
0.38583
2.08488
1.53028
1.58073
1.00072
0.452532
0.0765368
0.0130292
0.0186867
0.0783166
0.0766394
0.048172
0.0185828
0.0177131
0.0176445
0.0223333
0.0140301
0.0459588
0.0747778
0.0725784
0.081578
0.249156
0.0909464
0.0566742
0.0556948
0.00399606
0.0040536
0.00406338
0.0039928
0.00392473
0.00413227
0.00415395
0.0037971
0.00392931
0.00410154
0.00411205
0.00439353
0.00413717
0.00396934
0.00396705
0.004004
0.00491211
0.00469607
0.00497651
0.00472318
0.00453213
0.00502962
0.0054245
0.00511244
0.0049622
0.00511702
0.00504894
0.00488245
0.00511823
0.00487181
0.00496453
0.00539021
0.00540902
0.00443295
0.00475819
0.00449581
0.00475173
0.00467904
0.00453891
0.0034092
0.00703864
0.0042853
0.00460451
0.00401747
0.00447038
0.00429216
0.00447572
0.00420311
0.00429391
0.00347459
0.338487
0.262245
0.309017
0.371116
0.246653
0.361776
0.338029
0.383099
0.273835
0.277781
0.294719
0.378469
0.437681
0.340015
0.409634
0.273343
0.390439
0.430394
0.04547
0.051591
0.0643665
0.0855438
0.028896
0.099432
0.0481879
0.0545544
0.0595545
0.121051
0.0703373
0.0652621
0.0663962
0.0331464
0.0969624
0.0899734
0.126146
0.0839734
0.13778
0.134146
0.139091
0.0986054
0.0881103
0.13543
0.142925
0.143513
0.101809
0.0671431
0.067843
0.139237
0.0884167
0.132415
0.00391167
0.00392835
0.00395207
0.00444012
0.00473343
0.00394749
0.00380621
0.00433323
0.00417921
0.00423902
0.00364305
0.00467356
0.326125
0.207299
0.411169
0.165591
0.376425
0.28238
0.340036
0.332599
0.365389
0.101155
0.0663035
0.0817262
0.0901701
0.0715543
0.0797174
0.0852527
0.010065
0.0504165
0.00726848
0.0392851
0.123187
0.0983447
0.140438
0.0930905
0.0787334
0.0441705
0.0290337
0.0114239
0.105411
0.0242733
0.0313813
0.0396846
0.00562361
0.00694861
0.0390507
0.00856118
0.00202164
0.0557226
0.0419126
0.0108528
0.000585463
0.00239334
0.000840339
0.00202745
0.00322071
0.00289146
0.00265014
0.0556901
0.050787
0.0508003
0.0149672
0.120723
0.097066
0.063112
0.175614
0.0927573
0.139347
0.108364
0.0531597
0.0916438
0.0496612
0.152532
0.12405
0.10122
0.103711
0.239581
0.237937
0.230015
0.239076
0.222901
0.234954
0.189794
0.181366
0.204902
0.158429
0.167414
0.242473
0.192678
0.175559
0.180725
0.156486
0.16142
0.177469
0.209273
0.428583
0.47486
0.0334136
0.0893186
0.333249
0.181963
0.0250144
0.0713347
0.557728
0.373978
1.10495
0.978447
1.25728
1.32528
1.16497
1.02208
1.06864
0.977113
0.983427
0.954101
1.34248
1.47116
1.53913
1.34198
1.4316
1.32383
1.08409
1.17323
1.35236
1.25532
1.26221
0.0354373
0.0269007
0.0857075
0.0600516
0.0691958
0.0297425
0.0528173
0.0521539
0.0490149
0.161419
0.205174
0.265338
0.0261105
0.206105
0.371339
0.154569
0.263711
0.0194217
0.120833
0.159654
0.368184
0.0704581
0.0987402
0.585402
0.459039
0.0929575
0.364141
0.163186
0.777684
0.78389
0.785464
0.87338
0.802347
0.991004
1.1091
0.999391
0.92087
0.850993
1.03709
0.952902
1.01329
0.053679
0.0648137
0.0172637
0.0220839
0.018516
0.0169235
0.0292441
0.0370103
0.11539
0.0413257
0.0714227
0.0782748
0.0209989
0.0205678
0.0784827
0.0402423
0.0741059
0.0714483
0.0538514
0.0993183
0.118633
0.0448529
0.0636887
0.0218121
0.0995829
0.0296042
0.022481
0.121531
0.108536
0.0186646
0.0697016
0.0907916
0.0674369
0.0633884
0.116689
0.0280307
0.0474953
0.171101
0.0941546
0.0375156
0.0058831
0.0130741
0.10193
0.19003
0.0468415
0.0509366
0.1194
0.167071
0.0480072
0.0562587
0.0787517
0.05136
0.0532369
0.104819
0.117843
0.162337
0.0568191
0.0554635
0.0824031
0.168179
0.0659728
0.0479661
0.0882834
0.0494071
0.267591
0.289261
0.0164284
0.0339085
0.0573615
0.0836833
0.033762
0.0425497
0.0908878
0.221093
0.319386
0.240206
0.0489443
0.076025
0.0373905
0.147236
0.0987219
0.0275467
0.0272762
0.0219237
0.0240848
0.0258983
0.020563
0.0167084
0.0176233
0.0169039
0.0208018
0.0215083
0.0138423
0.0222483
0.0252732
0.00379852
0.00376629
0.00391167
0.00387584
0.00392604
0.00385542
0.00402613
0.00390583
0.00420437
0.00432231
0.126052
0.084115
0.135931
0.183973
0.0557007
0.0493108
0.17243
0.253318
0.0689569
0.146067
0.13977
0.142265
0.174258
0.0475467
0.167382
0.139281
0.0318598
0.602342
0.659898
0.620592
1.05274
0.951621
0.754639
0.950118
0.890752
0.924644
0.998154
0.568635
0.566595
0.709886
0.632881
0.864584
0.898078
0.870469
0.596617
0.647296
0.672583
0.00227671
0.00366672
0.00367814
0.00211309
0.00495551
0.0294768
0.0338821
0.00553828
0.00375361
0.0033731
0.031996
0.0403054
0.00197388
0.0183412
0.0246013
0.046888
1.96375
2.24174
2.47229
2.30466
1.70434
2.17623
1.75331
2.46333
2.81808
2.58994
1.86077
2.10446
2.43768
0.102174
0.14756
0.123771
0.0815926
0.0716475
0.0805015
0.134073
0.114663
0.0878825
0.0867867
0.0511255
0.0888917
0.0417533
0.118029
0.0960207
0.05449
0.122986
0.110786
0.0504313
0.0460339
0.0432683
0.0534379
0.00094581
0.00249088
0.00284988
0.00150489
0.00149972
0.0264996
0.105878
0.00416752
0.0379847
0.19363
0.219775
0.12194
0.114454
0.138916
0.0369728
0.127507
0.153375
0.118029
0.0446283
0.0434911
0.107664
0.0196742
0.0567707
0.0495044
0.0374199
0.036919
0.0578982
0.0332164
0.593139
0.69154
0.882911
0.80106
0.679333
0.687678
0.752678
0.776331
1.02905
0.819772
0.988596
1.01642
1.02456
1.14196
0.951261
0.929897
0.0696034
0.162995
0.130522
0.0734783
0.0106642
0.0203811
0.0257801
0.0112968
0.0106341
0.00996291
0.0960095
0.0669597
0.0181912
0.00802006
0.0286818
0.0222448
1.1143
1.6385
1.10549
1.4928
1.25171
1.81444
0.516
0.670095
0.466227
0.500666
0.514973
0.781951
1.4405
1.79007
1.16329
0.826818
1.01779
1.01865
0.781359
1.69354
0.0135601
0.00924805
0.00736412
0.00649495
0.00799236
0.00580929
0.00656512
0.00670521
0.0066308
0.0147508
0.0165752
0.00884059
0.00867521
0.00589128
0.015379
0.060877
0.0718088
0.118033
0.163641
0.225271
0.22254
0.277161
0.110072
0.377514
0.503504
0.435947
0.212678
0.57272
0.581259
0.0251868
0.0446177
0.0185944
0.0233593
0.0204046
0.0316298
0.013048
0.00695973
0.0335336
0.0076213
0.0164374
0.00688202
0.0105369
0.00616489
0.0054186
0.0059932
0.0734915
0.0798384
0.0624773
0.0631306
0.2212
0.228218
0.0407932
0.11858
0.113919
0.0508702
0.218476
0.172325
0.262271
0.163303
0.174974
0.236548
0.242482
0.280643
0.282247
0.0133019
0.0540926
0.0233853
0.0282259
0.0150889
0.126067
0.0361846
0.061256
0.0757667
0.0558172
0.0134268
0.0179164
0.0213042
0.0164038
0.0831181
0.0667069
0.0472104
0.117605
0.0809346
0.0972762
0.0372645
0.0575017
0.122975
0.0755658
0.0600378
0.0159358
0.0118671
0.0105149
0.0780257
0.00473309
0.00649355
0.025371
0.0228921
0.0126256
0.0110451
0.026027
0.0288659
0.0131263
0.0250526
0.00906331
0.00731363
0.007312
0.00807656
0.0307541
0.00852122
0.0231299
0.0207942
0.0166108
0.031086
0.0243232
0.025015
0.061846
0.0231032
0.0651807
0.0717654
0.0558903
0.0396559
0.525887
1.14057
1.6601
0.882301
1.28385
0.643866
0.796199
1.20814
1.39942
0.472469
0.940711
1.10726
1.60589
0.634871
1.0946
0.306227
0.809976
0.454196
0.404472
0.731222
0.869597
0.672145
0.39646
0.353833
0.349709
1.2142
1.21518
1.22276
1.36711
0.345349
0.354037
0.341129
0.309832
0.3358
0.61211
0.641829
0.559294
0.0427358
0.0861873
0.0243849
0.0433006
0.0256065
0.0195231
0.0126751
0.0279861
0.0176823
0.0164383
0.0159078
0.0131735
0.0141128
0.0149261
0.0158589
0.0108065
0.61761
0.69218
0.634338
0.719202
0.666109
0.676341
0.713608
0.610834
0.541877
0.849518
0.790141
0.910766
0.199057
1.17919
1.35068
0.97032
1.13096
0.28633
0.0696467
0.928928
0.0614262
0.976022
1.26159
0.395244
0.75908
0.289782
1.12559
1.44688
1.06445
0.121654
0.343962
0.434748
1.59847
0.356353
0.734777
0.817691
1.34757
0.386986
0.579481
0.567853
1.08267
0.318498
0.480965
1.55833
0.36038
0.725077
0.389571
0.918367
1.37185
0.745901
0.445567
1.08821
1.20088
0.368011
0.22846
0.857057
0.229549
0.821814
1.35503
0.818628
0.220189
0.262843
1.24816
0.825225
0.270166
0.235925
0.327081
0.252459
0.107876
0.169983
0.135238
0.265933
0.279772
0.0710698
0.0854486
0.0901694
0.214938
0.324544
0.13627
0.167232
0.0863084
0.222755
0.24031
0.0833139
0.0786882
0.0443089
0.0367506
0.0390558
0.0450519
0.120593
0.0683315
0.0446166
0.0685489
0.0448342
0.414193
0.699456
0.286127
0.010852
0.0104573
0.0100615
0.010371
0.0111702
0.0093324
0.0324058
0.0389922
0.0608112
0.0321978
0.00161278
0.0128624
0.0141256
0.00847948
0.027521
0.0265087
0.0782974
0.0303723
0.00658854
0.00740765
0.679675
0.703764
0.779108
0.60923
0.885311
0.888709
0.913027
0.775669
0.531999
0.657936
0.723051
0.693002
0.677531
0.744979
0.587281
0.659436
0.561526
0.537385
0.54271
0.0303679
0.0129761
0.0197477
0.0148315
0.39689
0.608467
0.17818
0.291678
0.0456079
0.021734
0.300285
0.0785666
0.0258275
0.178016
0.517707
0.17706
0.109464
0.263531
0.11758
0.265389
0.102716
0.0951609
0.181292
0.10836
0.170569
0.813295
1.03259
0.513529
0.534217
0.399408
0.279414
0.19028
0.317813
0.25923
0.61899
0.254707
0.157566
0.115778
0.248931
0.776234
0.839014
0.948389
0.865651
0.792736
0.851433
0.931881
0.963558
0.963017
0.85342
0.817242
0.889501
0.834596
0.867037
0.837611
0.793666
0.0235302
0.0222432
0.0247536
0.0299191
0.0303875
0.0269072
0.050375
0.0418811
0.0448316
0.0276911
0.0314431
0.0300562
0.0454819
0.0351457
0.0358014
0.0345143
0.0417247
0.0391453
0.0394242
0.0304049
0.725936
1.0025
0.599353
1.00864
0.45971
0.522472
0.185563
0.325482
1.11628
0.653799
1.12948
0.937118
0.242357
0.232841
1.14647
0.837888
1.12346
0.732201
1.41341
0.481991
0.0219373
0.0445929
0.0551526
0.0549568
0.0372831
0.0281706
0.0250083
0.0391202
0.0490252
0.0417558
0.0426009
0.0380409
0.0658507
0.0316475
0.0840474
0.076569
0.0784721
0.496314
1.06436
0.966328
1.84338
0.545556
0.622504
0.791078
0.848236
2.80409
0.806457
0.482723
1.55515
0.0119944
0.0104992
0.00903102
0.00413898
0.0114671
0.00835642
0.00771015
0.00526176
0.00495773
0.0136179
0.00884431
0.00481027
0.0570038
0.00027439
0.0196566
0.00104086
0.0309951
0.0975518
0.00110732
0.0563257
0.0805696
0.165433
0.149279
0.00683713
0.0115461
0.249829
0.176157
0.264314
0.00999836
0.0212836
0.0355973
0.00783742
0.0172308
0.0202002
0.00774798
0.0715484
0.0209899
0.030595
0.00984483
0.0534168
0.148628
0.0459112
0.0654255
0.0965092
0.361034
0.0120687
0.0138406
0.264095
0.476347
0.0370285
0.0214535
0.096816
0.241965
0.0638565
0.240443
0.245957
0.200182
0.10567
0.142597
0.215998
0.152586
0.152986
0.0788379
0.0208383
0.122131
0.0673644
0.0623375
0.0206308
0.0152095
0.0246187
0.0304966
0.0550209
0.00194628
0.00404707
0.00163239
0.00280188
0.0750891
0.073967
0.00907174
0.0010511
0.00524855
0.0395495
0.0729533
0.0716285
0.0112421
0.00350821
0.00517161
0.133886
0.0767435
0.511394
0.358688
0.122835
0.485379
0.328057
0.218249
0.104217
0.0196981
0.00130495
0.0160446
0.0534172
0.0053779
0.0209708
0.0213601
0.00742905
0.0269075
0.0188773
0.0204808
0.0246585
0.0248913
0.0106161
0.0110096
0.0227777
0.027458
0.0257744
0.0207297
0.0176705
0.0261297
0.0200779
0.109412
0.066211
0.0631778
0.144397
0.0618157
0.482998
1.06322
0.0841821
0.286464
0.345792
0.189526
0.339828
0.319544
0.112294
0.692917
0.868475
1.21772
0.920083
0.500442
0.388229
0.229055
0.0670638
0.0837993
0.381842
0.347602
0.154107
0.148458
0.145734
0.0814613
0.100839
0.156768
0.0949452
0.0821893
0.124128
0.0721721
0.046705
0.12848
0.195086
0.125798
0.123299
0.352099
0.36658
0.370978
0.36829
0.361898
0.357615
0.351693
0.361052
0.378186
0.371146
0.376856
0.363117
0.410963
0.391842
0.365302
0.359987
0.479742
0.36845
0.410072
0.512746
0.488037
0.412908
0.921699
0.742274
0.570685
0.790528
1.16619
0.728391
0.434085
0.8193
0.442815
0.755092
0.792708
1.50787
1.57902
0.872196
1.42823
1.68584
1.0921
1.54964
1.0727
0.727378
0.497709
0.357414
1.40356
0.993738
1.01691
0.196231
0.335647
1.20566
0.270635
0.995474
0.879219
0.250005
0.224994
0.191365
0.80211
0.945251
0.950621
0.936553
0.917811
0.951933
0.962009
0.913652
0.976679
0.936158
0.943038
0.9605
0.945472
0.836687
0.869674
0.763953
1.01093
0.93771
0.926073
0.780313
0.868516
0.950369
0.877685
0.635842
0.206946
0.234956
0.265235
0.734236
0.540608
0.960964
0.648445
0.566852
0.212123
0.432165
0.755159
0.538014
1.14229
1.07246
0.432233
0.462671
0.508549
1.48064
0.89753
0.946105
0.643869
0.399098
0.969017
1.07604
0.460791
0.342749
0.2547
0.942859
0.806054
1.03005
1.31672
0.599723
0.88806
0.891879
0.261353
0.66565
0.744793
0.289145
0.281264
1.00119
0.799681
0.815245
1.14948
0.815214
0.860376
0.310974
0.286226
0.664425
0.317878
0.496437
0.535616
0.505391
0.517038
0.487509
0.428407
0.448176
0.496787
0.412126
0.383807
0.318015
0.330417
0.407835
0.327236
0.312175
0.383502
0.373113
0.0741512
0.0813009
0.0908108
0.0890332
0.0871154
0.101246
0.0760578
0.0832315
0.0743595
0.0719023
0.0809633
0.106404
0.0788022
0.0939573
0.0833772
0.0959349
0.0828925
0.085238
0.0850605
0.120654
0.102794
0.0889411
0.0606466
0.0491427
0.0417923
0.0432268
0.0430724
0.0218979
0.0167295
0.0379533
0.0309041
0.0137847
0.012819
0.0224004
0.0212529
0.0107529
0.0212265
0.013912
0.0178519
0.018634
1.2884
1.1011
1.1682
1.30979
1.08613
1.25499
1.75709
1.0331
1.1762
1.43155
1.0046
0.99153
1.13499
1.02497
2.57794
1.26985
1.70754
0.122702
0.0210546
0.135885
0.674346
0.542115
0.0270964
0.0895625
0.0807167
0.0117896
0.261333
0.370198
0.64405
0.130022
0.123862
0.452654
0.654523
0.0745534
0.08301
0.0840623
0.0849331
0.125129
0.185856
0.0914656
0.899651
0.725972
0.140256
0.132201
0.273999
0.482994
0.776088
0.517914
0.611538
0.625813
0.773035
1.21808
1.61896
1.03198
1.48545
0.323435
0.635064
0.290649
0.0381931
0.0335615
0.0391315
0.0318748
0.0167445
0.0322845
0.0239083
0.0215192
0.0279488
0.0310555
0.0287514
0.0263376
0.0230582
0.0287429
0.142557
0.165787
0.0937607
0.104273
0.226074
0.0894398
0.102368
0.241495
0.343557
0.265667
0.403305
0.173353
0.154314
0.242291
0.069449
0.456327
0.475352
0.495857
1.03716
0.582846
0.705558
1.06387
1.18657
0.809522
0.53318
1.12066
1.11012
0.773175
1.23433
0.929202
0.871437
1.06166
1.01331
0.0294463
0.0410769
0.0249025
0.024287
0.0273383
0.0239126
0.0282347
0.0222427
0.0220745
0.0174717
0.926785
0.912389
0.662394
1.12231
0.232713
0.19258
0.142548
0.290377
0.529381
0.647993
0.899179
0.929044
0.765766
0.173182
0.191844
0.0666268
0.589987
0.818519
0.178478
0.184957
0.15594
0.186626
0.506402
0.344395
0.482657
0.327708
0.439235
0.428699
0.300154
0.652023
0.504884
0.39308
0.429962
0.536285
0.302768
0.563944
0.524175
0.325751
0.282383
0.407881
0.00696024
0.00685219
0.00651722
0.00699169
0.00662825
0.00633039
0.00670258
0.00656944
0.0061439
0.0064476
0.00627152
0.00652952
0.00674051
0.00654493
0.00628006
0.00601602
0.00612596
0.00591317
0.00625984
0.938769
1.02152
0.733862
0.876767
0.735272
0.737801
0.840894
0.653928
0.711315
0.648286
0.907875
0.990879
1.0013
0.888043
0.748698
0.724389
0.853086
0.918865
0.0277383
0.028938
0.0242714
0.0220784
0.0370028
0.0310521
0.0358723
0.0302542
0.028022
0.0471952
0.0354755
0.0368807
0.0370081
0.0444466
0.0597962
0.0571468
0.00401392
0.00411663
0.00410627
0.00403186
0.00406477
0.00400864
0.00399056
0.00394626
0.00397416
0.00396533
0.00397495
0.00392728
0.00398429
0.00460199
0.00456568
0.00468571
0.00467117
0.00460278
0.00447701
0.00496146
0.004717
0.00508651
0.0047629
0.00488258
0.00486684
0.00479922
0.00495041
0.00464188
0.00426854
0.00484466
0.00404509
0.00447563
0.00457344
0.00225129
0.0040759
0.00427151
0.00445852
0.00443637
0.00455639
0.00369905
0.00430894
0.00425791
0.00428799
0.0037139
0.00882763
0.00882299
0.00860737
0.00800633
0.00813929
0.00846593
0.00787522
0.00791295
0.00822817
0.00830912
0.00998261
0.00981794
0.00840137
0.00801848
0.00826397
0.00831742
0.0097661
0.00867344
0.00887823
0.00869028
0.679105
0.662338
0.612186
0.411832
0.542684
0.500296
0.673688
0.57508
0.660615
0.323968
0.346135
0.605655
0.489792
0.573179
0.658515
0.923445
0.601107
0.742052
0.828368
0.896934
1.00923
0.71882
0.850782
0.932911
0.874982
1.0762
1.20812
1.01869
0.531344
0.474899
0.541212
1.04436
1.03177
0.0116732
0.0108946
0.0109291
0.00961006
0.0124168
0.0110872
0.00963212
0.00950002
0.0102602
0.0109199
0.00879996
0.0087224
0.00858473
0.00924417
0.00975469
0.23091
0.144966
0.12622
0.120058
0.265722
0.149659
0.198866
0.252373
0.294589
0.00809257
0.00850848
0.00748895
0.00751097
0.00817445
0.00736609
0.00727783
0.00771433
0.00703331
0.00679656
0.00683485
0.00668277
0.00703
0.00786518
0.0073538
0.0068553
0.00691472
0.0071527
0.00781475
0.00818548
0.00696987
0.00716908
0.0027448
0.00387301
0.00242946
0.00285992
0.00393716
0.00737719
0.00326927
0.00248398
0.00220315
0.00269491
0.00237106
0.00280255
0.00320419
0.00183355
0.00246956
0.00293171
0.00273858
0.00556394
0.00318304
0.00813564
0.00408195
0.00399687
0.00383635
0.00421131
0.00480718
0.00415373
0.00442779
0.0046766
0.00431035
0.00400765
0.00386449
0.00373764
0.00376661
0.00428027
0.00418571
0.00458917
0.00443264
0.00439681
0.00410638
0.00428414
0.00405499
0.00464436
0.00377122
0.00407107
0.004307
0.00371719
0.0175987
0.0358182
0.0315152
0.0237885
0.00587939
0.0162606
0.00183454
0.000240342
0.0289848
0.00439046
0.0334911
0.0206846
0.0176316
0.00195148
0.00362152
0.0134279
0.00454594
0.00598544
0.00144804
0.00379286
0.00417848
0.00457995
0.00413679
0.0135927
0.00461083
0.00683954
0.00674889
0.00705266
0.00676564
0.00689381
0.00722481
0.00581469
0.00584247
0.022852
0.011736
0.0143557
0.0181826
0.00882284
0.0117346
0.0105199
0.0104262
0.00934188
0.0120916
0.00887567
0.00374615
0.00382569
0.00430662
0.00375103
0.00369485
0.00453636
0.00400649
0.00369593
0.00364075
0.00381269
0.00453426
0.00370472
0.00350254
0.00547809
0.00600385
0.00559976
0.00507312
0.00559512
0.00597834
0.00641762
0.005783
0.00553996
0.00558139
0.00550002
0.00601378
0.00569644
0.249595
0.165194
0.2204
0.24274
0.198777
0.176406
0.202264
0.215078
0.219562
0.288322
0.300419
0.260693
0.285968
0.0173446
0.0101021
0.0118101
0.0104912
0.0103243
0.0169241
0.0101381
0.016534
0.0102797
0.00912961
0.00994197
0.0083505
0.00685625
0.00604433
0.00915587
0.0147105
0.00940603
0.0136064
0.0150286
0.0222722
0.00981447
0.00671041
0.0349708
0.0295747
0.0753522
0.0176887
0.0329825
0.015566
0.0129986
0.0284695
0.0167181
0.0161102
0.0213991
0.012876
0.0196144
0.0139046
0.0294655
0.0154513
0.01014
0.0108624
0.0262282
0.0136924
0.0117937
0.0137382
0.0172513
0.834552
0.944362
0.829287
0.571706
0.778349
0.699134
0.836866
0.773275
0.735548
0.798974
0.812227
0.00397603
0.00385972
0.00411301
0.00428525
0.00441901
0.00406115
0.00426487
0.00411163
0.00429621
0.00430554
0.00407381
0.00409295
0.00417573
0.00221041
0.00812608
0.00516348
0.0374755
0.00405861
0.00624373
0.00432155
0.00464586
0.00618295
0.00778477
0.00449872
0.0054329
0.00566049
0.00502346
0.0106377
0.00424646
0.00521263
0.0052035
0.00855686
0.00449574
0.00487019
0.00479188
0.00357388
0.00383144
0.00307013
0.00214838
0.00467074
0.00336316
0.0034558
0.0045671
0.003492
0.0037758
0.00397438
0.003796
0.00387179
0.00352566
0.00335104
0.00378959
0.00385645
0.00396307
0.00392648
0.00425082
0.00418848
0.00403365
0.00394193
0.00396452
0.00400338
0.00401122
0.00395603
0.0045215
0.00412171
0.00411567
0.0158828
0.0146085
0.0185488
0.012993
0.0132512
0.0171453
0.018697
0.015165
0.0173633
0.0161056
0.0132915
0.017459
0.0142795
0.00064924
0.00409798
0.00416566
0.00227454
0.00310541
0.00351475
0.00335253
0.00401486
0.0036878
0.00357283
0.00356654
0.00210521
0.00142641
0.00351029
0.00385241
0.00258086
0.00483625
0.00240048
0.00672935
0.0072761
0.00278684
0.00962272
0.0138306
0.0094858
0.0101566
0.0180066
0.0153717
0.0125646
0.0229243
0.0255701
0.0189008
0.0244112
0.0298533
0.0174319
0.0190487
0.0222345
0.0257673
0.0185785
0.0260993
0.145427
0.552825
0.170689
0.234658
0.185435
0.350942
0.0607895
0.0702776
0.380227
0.0634909
0.164615
0.536853
0.188443
0.0906982
0.161177
0.117872
0.0522109
0.181799
0.19818
0.0680303
0.253788
0.148393
0.0849502
0.0538751
0.179601
0.227661
0.235769
0.0075685
0.0179611
0.0194527
0.000222999
0.00765277
0.725047
0.108603
0.609678
0.021111
1.20814
0.132623
1.24475
2.34958
1.74811
0.997087
1.8432
2.30639
0.92287
1.55243
0.36528
0.985157
0.756594
0.440399
0.575426
0.650364
0.371759
0.427293
0.884647
0.660086
0.341806
0.268879
0.663605
0.57616
0.284744
0.290447
0.525884
0.531635
0.39817
0.0421122
0.078615
0.125488
0.117035
0.0724507
0.130623
0.0552134
0.190966
0.0187204
0.0416496
0.334422
0.504087
0.325517
0.40995
0.230099
0.0922616
0.112333
0.144692
0.377096
0.104788
0.332652
0.387819
0.207862
0.183322
0.205304
0.142752
0.173972
0.281038
0.493761
0.41625
0.0819566
0.277973
0.457763
0.285765
0.0461679
0.00346476
0.0171981
0.00209174
0.00288656
0.00268272
0.0323408
0.00566855
0.0244837
0.0312907
0.0355431
0.0300798
0.00383067
0.000137335
0.00302811
0.00623074
0.0129439
0.012211
0.763059
1.15154
1.04365
1.16215
1.40457
1.01277
2.04963
0.156184
1.79461
0.792917
0.305232
0.117479
0.308018
0.472549
1.05104
0.161555
1.20491
0.818071
0.208291
0.366452
0.0183455
0.220034
0.00286554
0.00300336
0.00207097
0.00222956
0.00286707
0.00281448
0.00287475
0.00267682
0.00281253
0.00310947
0.00273472
0.00273847
0.00256667
0.00258672
0.00259525
0.00250614
0.00263176
0.00281209
0.0026849
0.00257368
0.0081934
0.0251927
0.07885
0.00423913
0.00108479
0.00302214
0.0855111
0.000520553
0.0186833
0.0036442
0.00370926
0.0265364
0.00355279
0.00359703
0.0257915
1.74728
2.65619
1.86379
3.02143
2.76307
2.47397
3.07984
1.58902
0.0110905
0.008268
0.0240935
0.0198809
0.0207566
0.00562592
0.00988355
0.0053495
0.0211951
0.014873
0.00583041
0.0147518
0.081284
0.117738
0.967763
0.363226
0.0881446
0.16021
0.891282
0.67092
0.875812
0.926212
1.31054
0.677679
1.08102
1.70694
0.519965
0.201667
0.205439
0.284468
0.00236138
0.00517201
0.00600145
0.00734192
0.00688445
0.00228083
0.00300329
0.00561221
0.00509513
0.00649665
0.00960805
0.0044713
0.0038401
0.00709425
0.00360868
0.00859798
0.0104224
0.00484644
0.041467
0.042004
0.0668701
0.0725598
0.0549946
0.0642155
0.0334279
0.0401941
0.0477635
0.0793103
0.0632661
0.0438896
0.0977197
0.0444533
0.0618223
0.0656047
0.0628873
0.0414868
0.0391975
0.0677317
0.0642185
0.0372378
0.0145473
0.0131853
0.0150988
0.0177377
0.0139141
0.0167878
0.0146714
0.0130779
0.0156647
0.017472
0.0172475
0.0157945
0.0155471
0.0144135
0.0157434
0.0140263
4.27823
3.63788
3.55638
4.54273
3.31353
3.26828
2.05131
1.61888
0.939104
0.933808
1.00713
1.03064
2.11909
0.967532
1.20427
1.04567
1.22087
1.57795
0.0659809
0.132873
0.119054
0.0677563
0.0337647
0.0222037
0.0542303
0.06878
0.0870805
0.0708787
0.0369753
0.0311154
0.0268925
0.0302684
0.0550055
0.0376627
0.00839353
0.00291394
0.00286249
0.00284536
0.00415413
0.0029915
0.0030171
0.00311197
0.00238901
0.00215995
0.0114519
0.00891642
0.0156285
0.00069801
0.0026929
0.0022576
0.00247268
0.00272006
0.00633021
0.0123031
0.462829
0.454711
0.372298
0.211103
0.0542298
0.219998
0.017723
0.167634
0.221957
0.346017
0.0613427
0.0500582
0.121472
0.14363
0.0728719
0.0877
0.0555438
0.0559524
0.0426828
0.0854139
0.0380201
0.0660793
0.0100262
0.0418306
0.0136223
0.00801535
0.00971804
0.00819782
0.240907
0.168268
0.101478
0.202396
0.299594
0.0602512
0.0416565
0.178915
0.198522
0.175952
0.0441159
0.0320407
0.100431
0.125586
0.0772991
0.0531971
0.0855352
0.0370894
0.0340465
0.00627128
0.0407904
0.0395859
0.0444361
0.0426957
0.0275803
0.0333469
0.0160165
0.0140954
0.0198445
0.0131751
0.0486423
0.04736
0.0242953
0.0392476
0.0355783
0.0383029
0.0526816
0.0193413
0.00481443
0.0700646
0.0550305
0.0208475
0.0219627
0.0499978
0.00102088
0.00164864
0.00330446
0.000131084
0.00185507
0.00193662
0.000317332
0.00249162
0.0111916
0.0300532
0.0191797
0.00592565
0.00570593
0.0125507
0.00900978
0.0113425
0.00757446
0.00836359
0.00323257
0.00490978
0.000596351
0.00925468
0.00905651
0.00498405
0.00465849
0.00498479
0.00500303
0.0045911
0.00475881
0.00505735
0.00485921
0.00485344
0.00481938
0.00495705
0.00472313
0.00457655
0.00478387
0.01207
0.0124039
0.0167159
0.0162455
0.0171392
0.0172745
0.011963
0.0106773
0.0142579
0.0151532
0.0123695
0.0153339
0.0132149
0.0138148
0.0445583
0.0507245
0.0529791
0.0589393
0.117384
0.116602
0.13086
0.14176
0.0492237
0.0890183
0.0825901
0.0845448
0.118499
0.0828215
0.0727544
0.376467
0.451393
0.0420712
0.00573909
0.13422
0.391427
0.48656
0.0231971
0.055078
0.0277507
0.0612006
0.135401
0.0354268
0.056083
0.0251136
0.00826949
0.0388977
1.06248
1.22118
1.00013
0.893124
0.487195
0.507709
0.769971
0.887226
0.468674
0.440955
0.976712
0.499685
0.506015
0.421301
0.414112
0.539542
0.501393
0.49989
0.54994
0.530646
0.529657
0.508058
0.204883
0.204314
0.249748
0.26314
0.276382
0.466431
0.151244
0.180658
0.176394
0.277245
0.132137
0.103802
0.408906
0.324261
0.269151
0.109588
0.169176
0.0821534
0.0642958
0.218249
0.201186
0.205861
0.148158
0.21622
0.0594946
0.153769
0.0674652
0.205467
0.244322
0.15063
0.18561
0.355351
0.358731
0.172443
0.260681
0.357357
0.403498
0.392492
0.31864
0.276309
0.270609
0.271766
0.293445
0.136215
0.184346
0.339147
0.206612
0.197958
0.215872
0.00356191
0.00375564
0.00392505
0.00358743
0.00334033
0.00368942
0.00334115
0.00338044
0.00362734
0.00339386
0.00335859
0.003337
0.00339824
0.00340931
0.00336032
0.00335437
0.00335744
0.003366
0.00331139
0.00337421
0.0118991
0.00962031
0.00431568
0.00552881
0.0286608
0.0109592
0.00550817
0.0186202
0.00709645
0.00558975
0.0038441
0.0361253
0.00663569
0.00609438
0.0060352
0.00603433
0.00667541
0.00622829
0.00689768
0.00693396
0.0064271
0.00621306
0.00612515
0.00621502
0.00601334
0.00693549
0.00671838
0.0389361
0.0483943
0.04315
0.0441386
0.225065
0.190322
0.155235
0.157013
0.199284
0.0549319
0.0794943
0.0291415
0.0344077
0.130526
0.0941603
0.0729946