/*--------------------------------*- C++ -*----------------------------------*\
  =========                 |
  \\      /  F ield         | OpenFOAM: The Open Source CFD Toolbox
   \\    /   O peration     | Website:  https://openfoam.org
    \\  /    A nd           | Version:  10
     \\/     M anipulation  |
\*---------------------------------------------------------------------------*/
FoamFile
{
    format      ascii;
    class       volScalarField;
    location    "9";
    object      nut;
}
// * * * * * * * * * * * * * * * * * * * * * * * * * * * * * * * * * * * * * //

dimensions      [0 2 -1 0 0 0 0];

internalField   nonuniform List<scalar> 
75457
(
0.0613579
0.0663585
0.0529727
0.0229701
0.0572639
0.0231384
0.0629353
0.0199558
0.0283762
0.0277316
0.0258231
0.043494
0.0566882
0.0202236
0.0338664
0.0300751
0.00929094
0.0192331
0.0251747
0.00618127
0.0125441
0.0103591
0.0324282
0.0335162
0.0209862
0.0365681
0.0363051
0.0330463
0.0310097
0.0387939
0.0287507
0.0378111
0.03839
0.0226179
0.021716
0.0260496
0.0231471
0.0392071
0.0379221
0.026266
0.0283826
0.0255218
0.0246501
0.0118525
0.0183035
0.00602464
0.0042623
0.00943971
0.0963425
0.0536809
0.0766689
0.093724
0.0890632
0.0789134
0.0572399
0.0592944
0.12223
0.105613
0.0997951
0.0150349
0.0892253
0.100116
0.0519956
0.0447634
0.00791009
0.0412956
0.013373
0.0454128
0.0571037
0.0116071
0.0566069
0.0126521
0.0467992
0.0037984
0.056252
0.0181243
0.0180593
0.128723
0.151898
0.174412
0.0895954
0.114684
0.155317
0.180829
0.120254
0.145973
0.163644
0.132819
0.157117
0.0942998
0.194635
0.181919
0.123691
0.156826
0.159891
0.0984087
0.0979564
0.10112
0.0141273
0.122512
0.0951661
0.112579
0.00524818
0.0031921
0.00101419
0.0013572
0.00897699
0.00217614
0.0101473
0.042842
0.0667332
0.00809845
0.00808471
0.0522579
0.0131203
0.0846831
0.0116468
0.0496311
0.052044
0.0136497
0.00314843
0.0107366
0.0114842
0.0290588
0.0585418
0.0357536
0.00756933
0.0681976
0.0740304
0.0129575
0.0246985
0.13052
0.0416653
0.0965897
0.156079
0.0566595
0.0512333
0.136228
0.124129
0.00989807
0.0304536
0.0490729
0.0691508
0.0347842
0.0412377
0.10893
0.0825785
0.0635711
0.0680975
0.137518
0.0110365
0.118124
0.0547244
0.0474878
0.0683437
0.0715491
0.142291
0.00806045
0.0774877
0.124747
0.0083463
0.0581445
0.119489
0.000865283
0.000869161
0.000860994
0.000879261
0.000872508
0.000869456
0.000864804
0.000855806
0.000884103
0.000849491
0.000867222
0.000869956
0.000868305
0.078746
0.0918459
0.115522
0.0959643
0.208096
0.00725738
0.180449
0.0750985
0.00870902
0.101843
0.19079
0.0889933
0.075528
0.0173351
0.120156
0.0709682
0.0962376
0.0703355
0.0687738
0.0137592
0.0267723
0.0538344
0.0463992
0.0325256
0.0239767
0.0770774
0.0831743
0.00801105
0.0764651
0.0733091
0.0695132
0.129479
0.116854
0.116595
0.106745
0.104439
0.0128137
0.013297
0.111004
0.0930844
0.0144799
0.103337
0.0145977
0.0153357
0.0632311
0.106928
0.0778063
0.00975296
0.0835683
0.0838325
0.0138683
0.0676366
0.106139
0.00734446
0.0460786
0.0440953
0.0635185
0.0792627
0.0912161
0.105285
0.121041
0.0894827
0.0905535
0.0919301
0.0894422
0.113367
0.00932383
0.124702
0.0735811
0.0936357
0.103745
0.118867
0.103916
0.0123717
0.1027
0.00962022
0.069537
0.0106925
0.0891467
0.0075211
0.0660736
0.0294307
0.0422942
0.00936448
0.0333121
0.0365875
0.0904607
0.0585987
0.0901944
0.0173182
0.0899007
0.0155762
0.015791
0.0694593
0.0119603
0.0780422
0.13591
0.132039
0.0876662
0.123438
0.0917452
0.0775754
0.0111075
0.0835256
0.111976
0.00959198
0.0992869
0.00858408
0.103738
0.00789212
0.100528
0.0667143
0.0758554
0.0908374
0.0819079
0.0863728
0.144655
0.00894422
0.0681244
0.0122822
0.0694954
0.109835
0.110135
0.0105579
0.115169
0.0522353
0.0195465
0.0790671
0.0688519
0.161678
0.00436345
0.0845505
0.128033
0.0103552
0.169685
0.0871588
0.0643957
0.0691291
0.053038
0.0552811
0.0616199
0.070187
0.0442754
0.0191089
0.0424791
0.0699006
0.0555386
0.0395333
0.00588456
0.111804
0.0949303
0.0881553
0.121178
0.0843552
0.0546524
0.0577827
0.0978617
0.00835684
0.0945397
0.0961698
0.13424
0.13836
0.0123504
0.109384
0.126889
0.0112274
0.0854579
0.0796908
0.0354445
0.0869009
0.0761419
0.107979
0.0332902
0.140222
0.10958
0.0336476
0.117572
0.115186
0.114849
0.144463
0.128795
0.0207577
0.104142
0.133307
0.0179425
0.0135743
0.0193288
0.012978
0.0850794
0.0870621
0.0815451
0.0908232
0.0918386
0.087506
0.0990652
0.0939895
0.0938689
0.101251
0.013412
0.0855859
0.0857654
0.120639
0.00870282
0.0675561
0.0612698
0.0559988
0.0161628
0.0210379
0.0682189
0.287061
0.100595
0.122519
0.0691722
0.0698057
0.0932881
0.000892678
0.000929733
0.000850913
0.000849493
0.000917718
0.00093871
0.00088408
0.000935884
0.000889561
0.000918831
0.000836786
0.000843246
0.000840744
0.00086756
0.0008496
0.000841252
0.000819911
0.000841028
0.000896218
0.000901744
0.000858124
0.000817338
0.000793831
0.000802213
0.000868509
0.000858104
0.000856887
0.000799763
0.000789919
0.000828103
0.000841372
0.000911205
0.000903867
0.00085046
0.000847633
0.000884799
0.00086906
0.000853235
0.000853101
0.000909654
0.00090024
0.00087632
0.000895682
0.000868385
0.000860674
0.000857616
0.000856407
0.000892467
0.000917119
0.000860678
0.000882802
0.000892173
0.000872781
0.0505578
0.025353
0.0267371
0.0245863
0.0262117
0.0440987
0.0226962
0.027739
0.0196082
0.048112
0.0204657
0.019182
0.0206395
0.0211332
0.0176215
0.0471593
0.0457784
0.0333263
0.0556499
0.0272876
0.0309374
0.0321928
0.0586667
0.0295719
0.0310466
0.029399
0.0447056
0.0356486
0.0528403
0.0302189
0.0282336
0.00718519
0.00365506
0.00532749
0.0207849
0.0196185
0.013005
0.00512899
0.00498531
0.00503225
0.00621221
0.00387041
0.0125668
0.0194379
0.0189952
0.0226664
0.0532421
0.0244353
0.0155635
0.0152698
0.000877037
0.000879135
0.000888012
0.000886167
0.000876437
0.000915279
0.00091719
0.000835927
0.000865396
0.000906374
0.000902662
0.000949601
0.000910485
0.00086608
0.000861311
0.000866007
0.000842582
0.000839274
0.000841172
0.00084475
0.000845141
0.000836117
0.000852969
0.000847187
0.000846348
0.000848017
0.000859613
0.000847629
0.000850953
0.000849018
0.000854672
0.000863077
0.000853583
0.000942728
0.000978659
0.000962678
0.00101106
0.00101239
0.000988733
0.000729499
0.00146571
0.000931347
0.00102357
0.000852271
0.000981665
0.000955526
0.000993581
0.000920221
0.000967033
0.000753304
0.0751986
0.0683369
0.0705065
0.0685729
0.0750537
0.0772593
0.0944843
0.0867386
0.0790572
0.0807602
0.0714356
0.0701968
0.0945678
0.0889349
0.0995475
0.0778366
0.0755407
0.0797652
0.0210281
0.0239346
0.0292631
0.0352636
0.0140529
0.0395788
0.0222339
0.0253191
0.0275248
0.0456616
0.030803
0.0301124
0.0299461
0.0158117
0.0380209
0.0358118
0.0459972
0.033328
0.0485422
0.0476889
0.0500165
0.0378551
0.034794
0.0476399
0.0497678
0.0508204
0.0395878
0.0274764
0.0275759
0.0512715
0.0342423
0.0494029
0.000918924
0.000920058
0.000920487
0.000984148
0.00103605
0.000920235
0.000887162
0.00096327
0.00094477
0.000947143
0.000853441
0.00102787
0.080764
0.0592171
0.0945698
0.0497971
0.0885743
0.0724623
0.0807711
0.0795142
0.0878232
0.0336043
0.0230182
0.0271799
0.0266563
0.0221411
0.0264164
0.0260583
0.00505366
0.0190319
0.00374529
0.0161819
0.0329504
0.028631
0.0327798
0.028468
0.0252229
0.0175923
0.0127763
0.00548072
0.0272905
0.0110188
0.013488
0.0153298
0.00154377
0.0019184
0.0107205
0.00232775
0.000531658
0.0150942
0.011512
0.00301824
0.000163457
0.000651623
0.000226915
0.000552015
0.00087254
0.000769174
0.000704124
0.0151746
0.0139723
0.0136991
0.00417489
0.0488629
0.0397345
0.0289603
0.0634346
0.0385245
0.0518839
0.0416423
0.0233022
0.0375145
0.0231343
0.0575924
0.048983
0.0418963
0.0426551
0.0856129
0.0905594
0.0854975
0.0860073
0.0849963
0.0867025
0.0755314
0.0731666
0.0803011
0.0664201
0.0697556
0.0908849
0.0761776
0.0710935
0.0717796
0.06756
0.0684574
0.0710042
0.0411148
0.0679522
0.0742403
0.00838745
0.0224337
0.0609519
0.0381534
0.00737172
0.0192321
0.0807212
0.066972
0.153172
0.148494
0.156319
0.0844714
0.104864
0.151668
0.156344
0.116017
0.14352
0.139788
0.146158
0.107138
0.114288
0.146282
0.123698
0.156802
0.156041
0.148873
0.151809
0.103919
0.129321
0.0129955
0.00973431
0.0286157
0.0210357
0.0241909
0.0111961
0.0189166
0.0186241
0.0176516
0.0464531
0.053396
0.0613643
0.0100412
0.0543399
0.0724545
0.0440336
0.0602621
0.00493598
0.0369507
0.0348344
0.0267118
0.0221021
0.0273802
0.0571585
0.0354858
0.0187202
0.0461408
0.0251578
0.17831
0.192735
0.174159
0.152842
0.155027
0.16256
0.161438
0.147171
0.142337
0.158814
0.149045
0.15425
0.148667
0.0258709
0.0303779
0.00925348
0.0116528
0.00953553
0.00892409
0.0144804
0.0180544
0.0463887
0.0206749
0.0328088
0.0349192
0.0112673
0.0106661
0.0337206
0.0208507
0.0341435
0.0333935
0.0260602
0.0399534
0.0463882
0.0223109
0.0245311
0.00941772
0.0359294
0.0126507
0.00970418
0.0405404
0.0386011
0.00847786
0.0272444
0.0321322
0.0255781
0.024363
0.0398814
0.0126193
0.019818
0.0544955
0.035239
0.0163171
0.00284199
0.00623327
0.0381031
0.0558901
0.0220574
0.0229821
0.0424796
0.0525853
0.0222519
0.026305
0.032194
0.0234828
0.0241035
0.0395991
0.04298
0.0518467
0.0252683
0.0250658
0.0342315
0.053234
0.0301802
0.0222682
0.0365681
0.0234627
0.0656179
0.052087
0.00780456
0.0148629
0.0221533
0.0282921
0.0147683
0.0174841
0.0322927
0.0637587
0.0777299
0.0645155
0.0200287
0.0322768
0.016925
0.054457
0.0410272
0.0103429
0.0102886
0.00886681
0.00959221
0.0103043
0.00849366
0.00711453
0.00719748
0.00690438
0.00825734
0.0087992
0.00592103
0.0087334
0.00962342
0.000853339
0.000794895
0.000808359
0.000854489
0.000836896
0.00081343
0.000830102
0.000846903
0.000893903
0.000897463
0.0420972
0.0316943
0.0451862
0.054559
0.0222067
0.0198571
0.0519434
0.0626982
0.0268174
0.0444328
0.044323
0.0449875
0.0491997
0.0185721
0.0487971
0.0439776
0.0127742
0.105368
0.10931
0.105678
0.168239
0.159916
0.133618
0.153637
0.151413
0.161584
0.175679
0.0978689
0.0994787
0.11842
0.111219
0.142287
0.161695
0.154026
0.109105
0.114905
0.122402
0.000477765
0.00075841
0.000774985
0.000442675
0.000986589
0.00571143
0.00604194
0.00112612
0.000764223
0.000704294
0.00583195
0.0072701
0.000415948
0.00377395
0.00482864
0.00804154
0.201009
0.267333
0.336151
0.29993
0.146215
0.233359
0.144427
0.211371
0.266164
0.28038
0.156053
0.197846
0.239055
0.0346891
0.0464436
0.0418403
0.0291678
0.0264398
0.0291592
0.0430259
0.038376
0.0314624
0.030632
0.0201668
0.031128
0.0108335
0.0276966
0.0239995
0.0139764
0.0293003
0.0269576
0.0133707
0.0123067
0.0116794
0.0141571
0.000248853
0.000660608
0.000738244
0.00039264
0.000381999
0.00686825
0.0262571
0.00108015
0.00984476
0.0492518
0.0560166
0.0325331
0.0305964
0.0349292
0.0125754
0.0373817
0.0405508
0.0339503
0.0161424
0.0156866
0.031996
0.00752029
0.0190108
0.0169084
0.0138421
0.0137356
0.0196176
0.0121031
0.130734
0.111855
0.148878
0.121616
0.106478
0.137166
0.0880313
0.15427
0.127561
0.152604
0.162515
0.169062
0.164759
0.138495
0.156669
0.107628
0.0154569
0.0331259
0.028118
0.0166539
0.00241943
0.00453541
0.00582479
0.00256843
0.00240247
0.00220529
0.0208805
0.0149037
0.00397932
0.00175068
0.00595654
0.00477859
0.0212287
0.135739
0.0821651
0.122845
0.0237281
0.10991
0.0882356
0.0680904
0.0784705
0.0788616
0.0842637
0.111401
0.158794
0.16251
0.083116
0.0982974
0.0994101
0.0985697
0.08842
0.163809
0.00203138
0.00121209
0.00100259
0.000918398
0.00116932
0.000812241
0.000848767
0.000909176
0.000962058
0.002018
0.00224668
0.00125287
0.00115809
0.0008463
0.00215674
0.0122003
0.0135421
0.0223887
0.0308429
0.0381635
0.035545
0.0391017
0.0182352
0.0509934
0.0643056
0.0589486
0.0321344
0.0684123
0.0656695
0.00674443
0.0107913
0.00513263
0.00627825
0.00566916
0.0083055
0.00381407
0.00215352
0.00847917
0.00219527
0.00455004
0.00213456
0.00311578
0.00191842
0.00167298
0.00187878
0.0309143
0.032961
0.0269889
0.0269492
0.0617704
0.0622479
0.0187346
0.0416088
0.0396365
0.0232761
0.0627648
0.0526327
0.0642509
0.0507835
0.0542261
0.0632358
0.0667531
0.064471
0.0629754
0.00500255
0.016306
0.00779848
0.0098407
0.00548433
0.0327011
0.0115645
0.0181086
0.0209059
0.016278
0.00518689
0.00680374
0.00739355
0.00615777
0.0231
0.0198016
0.017009
0.0372897
0.0278364
0.032205
0.0141945
0.0209549
0.0390958
0.0268124
0.0217647
0.00192827
0.00164969
0.00145902
0.00959419
0.000555561
0.000859861
0.00343477
0.00301984
0.00167279
0.00147748
0.00341631
0.00387376
0.00159643
0.00313506
0.00112192
0.000877734
0.000908941
0.00102998
0.00415279
0.00108377
0.00743603
0.00676958
0.00547292
0.0103472
0.00800696
0.00783128
0.0209187
0.00760339
0.0205327
0.0235482
0.0185338
0.0131768
0.110108
0.161844
0.0137341
0.163225
0.0688098
0.101059
0.0698517
0.00986034
0.0115194
0.0919796
0.0814018
0.0775536
0.0131082
0.0955333
0.0962073
0.0771494
0.0970772
0.0862887
0.0870892
0.0904668
0.0912168
0.0891868
0.0862526
0.0908056
0.0913505
0.0992471
0.0151455
0.0905617
0.0173089
0.0911334
0.0899228
0.0899991
0.0850637
0.0891566
0.110854
0.102846
0.108456
0.0216595
0.038068
0.0132083
0.0219323
0.0138436
0.0108317
0.00713296
0.0151838
0.00973654
0.00904193
0.00831373
0.00713901
0.00769022
0.00818532
0.00865941
0.00590629
0.109556
0.0670425
0.0763324
0.0946406
0.0622119
0.0749299
0.115437
0.0723436
0.0469818
0.112777
0.0945611
0.122901
0.0527185
0.101555
0.0168429
0.100383
0.0141114
0.0634967
0.0251229
0.0967331
0.0216612
0.115222
0.0757681
0.0830782
0.0930684
0.0713399
0.113476
0.0144008
0.105656
0.0447826
0.0785344
0.0845777
0.0158541
0.079384
0.111506
0.101875
0.106299
0.0930042
0.0719621
0.152833
0.00994849
0.0543529
0.0677268
0.0142584
0.0670623
0.0855262
0.0500825
0.119805
0.0154114
0.132876
0.0678577
0.0978135
0.0132176
0.0821903
0.0576315
0.0995579
0.0597373
0.0936002
0.01491
0.0947878
0.0630689
0.0676145
0.0838355
0.0886806
0.0701484
0.066953
0.0751415
0.069342
0.0414774
0.0555809
0.0489115
0.07149
0.0724919
0.0304539
0.0346793
0.0362271
0.0624868
0.0762202
0.0480401
0.0544632
0.0350634
0.0658463
0.068111
0.0192156
0.0213922
0.0108421
0.0089102
0.0100159
0.0114382
0.0258153
0.0244699
0.0122986
0.0160775
0.0113599
0.0697919
0.0833213
0.0541066
0.000912243
0.000903082
0.000915764
0.00096327
0.000909789
0.000878531
0.00317964
0.00361685
0.00547183
0.00291223
0.000130092
0.000995675
0.00138377
0.00081247
0.00254437
0.00236203
0.00717473
0.00245176
0.00056708
0.000685529
0.0348971
0.0518634
0.0584639
0.0423578
0.0263574
0.0345043
0.021998
0.0100228
0.046552
0.063408
0.0518347
0.0194106
0.0223486
0.0114103
0.0311665
0.0289477
0.0315694
0.0368815
0.0318597
0.00584691
0.00287081
0.00435264
0.00363819
0.0372988
0.0403674
0.0184286
0.0247621
0.00974326
0.00490102
0.026103
0.0103139
0.00540266
0.0279185
0.0418403
0.0225126
0.0181788
0.0238085
0.0193383
0.0247329
0.0457486
0.0425723
0.0684708
0.046986
0.0655076
0.08956
0.0885571
0.0997849
0.0976529
0.110139
0.0812761
0.0715012
0.0912861
0.0802256
0.0949847
0.0817911
0.0614041
0.0503832
0.0788049
0.0796949
0.106132
0.0991664
0.1271
0.0932536
0.0461503
0.0926091
0.135868
0.156924
0.125589
0.109992
0.0593344
0.0716751
0.0933846
0.093301
0.0744122
0.000961179
0.000974135
0.00102932
0.00114873
0.000998206
0.00097916
0.00166061
0.000964436
0.00109368
0.000757671
0.000973329
0.000948209
0.00101742
0.00104133
0.00110095
0.00110481
0.00107258
0.00101003
0.000998621
0.0010356
0.0915457
0.104933
0.0768292
0.100091
0.073604
0.0784759
0.0437444
0.0618894
0.0937718
0.080595
0.0107807
0.101157
0.0520512
0.0525073
0.0817664
0.0760821
0.010735
0.0835592
0.0133422
0.0740138
0.000715937
0.00118841
0.00132984
0.000983366
0.000885743
0.000944394
0.00101587
0.000990195
0.00104065
0.000994202
0.000939758
0.00106836
0.00105234
0.00077109
0.00106379
0.000945404
0.00141965
0.154286
0.089197
0.140387
0.0127416
0.0907592
0.10748
0.0938489
0.110919
0.0190972
0.107786
0.245191
0.0738555
0.000989215
0.000905562
0.000593939
0.000284547
0.000873255
0.000720273
0.000704951
0.000492508
0.000353689
0.000899829
0.000702284
0.000372004
0.00443861
1.93394e-05
0.00169799
8.07308e-05
0.00241832
0.00812146
7.17356e-05
0.00502082
0.00711177
0.0284903
0.0262041
0.00124532
0.00205147
0.0395224
0.0300028
0.0419085
0.00174261
0.00385903
0.00631621
0.00140172
0.00314828
0.00373102
0.00144385
0.0122687
0.00369469
0.00546509
0.00179026
0.0110864
0.0282872
0.0095524
0.0131428
0.0189758
0.0572452
0.0025299
0.00279624
0.0434811
0.0685398
0.00721938
0.00442904
0.0190913
0.0409783
0.0123911
0.023931
0.0295732
0.0310888
0.0174143
0.0137407
0.0329565
0.0274094
0.024129
0.0126604
0.00328218
0.0218196
0.0107993
0.0100246
0.00329789
0.0048059
0.00760594
0.00951161
0.0163856
0.000630841
0.00132841
0.000515297
0.00088961
0.0212935
0.0200898
0.00288497
0.000333063
0.00163626
0.0118982
0.0207353
0.0208422
0.00157909
0.000489113
0.000707671
0.0188168
0.010838
0.0630617
0.0514855
0.0173892
0.0572844
0.0451042
0.0331354
0.016243
0.0027665
0.000166197
0.00208732
0.00739917
0.000741049
0.000960216
0.000971085
0.000442566
0.00148524
0.000961342
0.000933593
0.000978661
0.00097585
0.000569547
0.000556731
0.000891047
0.000911967
0.00103637
0.000778283
0.000743696
0.00103894
0.000832105
0.0145414
0.0112959
0.0115528
0.0188236
0.0119418
0.0373006
0.051451
0.0158048
0.0250896
0.0304904
0.0234872
0.0331242
0.0277126
0.0200143
0.0877599
0.0849803
0.026432
0.113139
0.060409
0.0571102
0.0406154
0.0144515
0.0187437
0.0555136
0.0529317
0.0291846
0.0287091
0.0295434
0.0168942
0.0210747
0.0312877
0.0203934
0.0182725
0.0255071
0.0156926
0.0100596
0.0263962
0.0370144
0.0268041
0.0262869
0.0957332
0.10588
0.114103
0.106338
0.0913943
0.106754
0.107294
0.110041
0.0916787
0.112514
0.109852
0.104389
0.111762
0.117446
0.115082
0.11561
0.0895435
0.0841827
0.085944
0.0906959
0.10313
0.0963582
0.104475
0.128472
0.0929476
0.130037
0.0141123
0.0897741
0.0877616
0.0911802
0.10222
0.10532
0.0891406
0.109726
0.0194483
0.0866422
0.0989456
0.0210453
0.10231
0.020375
0.0956218
0.092714
0.0852394
0.0786768
0.0180598
0.102259
0.0919236
0.0647152
0.0772021
0.105571
0.0694502
0.0961853
0.0931401
0.0658175
0.0643244
0.0582808
0.0994315
0.172614
0.138423
0.149403
0.106877
0.138659
0.119646
0.100045
0.13817
0.129741
0.115424
0.131678
0.150539
0.109442
0.132901
0.0246562
0.117372
0.104031
0.105618
0.0205896
0.0972772
0.115946
0.100922
0.115314
0.0468683
0.0521687
0.0565667
0.087475
0.0779762
0.131853
0.0936582
0.0873363
0.0505989
0.0699674
0.0996524
0.0703739
0.0106581
0.00990854
0.0678564
0.0718635
0.0738069
0.0137313
0.106649
0.0780963
0.0863919
0.120701
0.107753
0.0113764
0.0755278
0.0713682
0.0631507
0.0980322
0.0960872
0.0724203
0.0139525
0.0900237
0.0977477
0.089674
0.0632369
0.107666
0.126365
0.0652671
0.0638558
0.104476
0.0912833
0.0809753
0.0114397
0.117539
0.0837055
0.0694101
0.0685478
0.0850369
0.0731973
0.106874
0.114317
0.123173
0.111026
0.0999031
0.115601
0.116676
0.106262
0.115216
0.113344
0.0883482
0.0930685
0.121983
0.102227
0.0949841
0.116414
0.113248
0.0376848
0.0407723
0.0440293
0.0436297
0.0430596
0.0467277
0.0392803
0.0436782
0.0372506
0.0365898
0.0421386
0.049282
0.0394861
0.0448519
0.0420234
0.0458799
0.041581
0.0420541
0.0419246
0.0505629
0.0463651
0.0439099
0.0271278
0.0243286
0.0210187
0.0220248
0.0240086
0.0131133
0.0103312
0.0209639
0.0163573
0.008562
0.0079513
0.0127724
0.0120193
0.00668649
0.0125196
0.00837431
0.0106621
0.0111193
0.17492
0.155054
0.132572
0.148093
0.127691
0.144754
0.22263
0.153018
0.155796
0.180995
0.142069
0.136082
0.159867
0.159166
0.235038
0.164365
0.19998
0.0311465
0.00608832
0.0343937
0.088178
0.0857579
0.00782926
0.0238766
0.0215909
0.00357325
0.0565672
0.0752947
0.0923046
0.0431084
0.0420569
0.0879942
0.101417
0.0299557
0.0316522
0.032228
0.0320976
0.0425437
0.0471901
0.0319215
0.0943034
0.0985175
0.0421854
0.0412854
0.0573262
0.0856673
0.0935618
0.0856705
0.0969997
0.0875461
0.0966661
0.0808011
0.0148489
0.0966715
0.0136845
0.0732585
0.0854128
0.0691378
0.0208883
0.0188008
0.0213006
0.0178665
0.00992641
0.0176633
0.0135875
0.0123543
0.0149456
0.0161418
0.0155846
0.0146334
0.013187
0.0159259
0.0444074
0.0526141
0.0335127
0.0374621
0.0566148
0.034631
0.037069
0.0640424
0.0786941
0.0707099
0.0873991
0.0494723
0.0503591
0.0630959
0.0282177
0.0669476
0.0734761
0.0197683
0.039385
0.099949
0.0311275
0.17533
0.238823
0.0777233
0.103678
0.141796
0.228355
0.172226
0.161239
0.135869
0.204267
0.175508
0.187274
0.00144419
0.00169457
0.000972157
0.00119115
0.00128472
0.00111234
0.00119083
0.00113312
0.000940382
0.000894291
0.0929244
0.0118951
0.086749
0.0146391
0.0543844
0.0495527
0.0408311
0.0607094
0.0741008
0.0741757
0.0862944
0.093006
0.087476
0.0471302
0.0498779
0.0241312
0.0742609
0.086247
0.046422
0.0494594
0.042899
0.0461972
0.132209
0.0705177
0.143845
0.0929375
0.0924247
0.022308
0.0751342
0.197616
0.145295
0.0214408
0.0579081
0.0275078
0.0708264
0.183739
0.171204
0.0748375
0.0651635
0.122296
0.000870789
0.000870684
0.000873688
0.000873761
0.000872962
0.000869115
0.000873815
0.000871346
0.000866702
0.000865501
0.000876365
0.000871035
0.000866691
0.000869245
0.000877568
0.000887166
0.000872727
0.000877359
0.000866325
0.119547
0.111128
0.080285
0.100521
0.0622879
0.0562146
0.0893341
0.0992397
0.0617377
0.106161
0.0790215
0.108251
0.106851
0.0633746
0.113771
0.0983842
0.110727
0.0443434
0.000947935
0.000964815
0.000971585
0.000934764
0.000953619
0.000971042
0.000977118
0.000977737
0.000965922
0.00102869
0.000994214
0.000981951
0.000994981
0.00100981
0.00102788
0.00102215
0.000857535
0.000843107
0.000841857
0.000864648
0.000878846
0.000859208
0.000851185
0.000856336
0.000826227
0.000825505
0.00087289
0.000832586
0.000872907
0.000844216
0.000879375
0.000853188
0.000853703
0.000853174
0.000877079
0.000860339
0.0008517
0.000888696
0.000869522
0.00086623
0.000845022
0.000896992
0.000899708
0.000864314
0.000874894
0.000978339
0.000851177
0.000926983
0.000887464
0.000444923
0.000860939
0.000897122
0.000872981
0.000902245
0.000909447
0.000733851
0.000873335
0.000858942
0.000841855
0.000704801
0.000886608
0.000890249
0.000884958
0.000879675
0.000879558
0.00088079
0.000880677
0.000900867
0.000891881
0.000886748
0.000890198
0.000891116
0.000883565
0.000873011
0.000886629
0.00088486
0.000899905
0.000889371
0.000895767
0.000893337
0.0828853
0.0829758
0.0800952
0.0564098
0.0686373
0.0644415
0.0789925
0.0729493
0.0747857
0.0486463
0.0488803
0.0706399
0.0664174
0.0706769
0.0764846
0.0972676
0.0685968
0.0858113
0.0852121
0.0910377
0.0978483
0.078591
0.0891457
0.0880995
0.0952041
0.0944415
0.100642
0.0895634
0.0535417
0.0525522
0.0513103
0.0840065
0.0932967
0.000908781
0.000909191
0.000896516
0.000946883
0.000913223
0.000909445
0.000863032
0.000886433
0.000887665
0.000879078
0.000882699
0.000896424
0.00089737
0.000893609
0.000877305
0.069102
0.0468448
0.041504
0.0398021
0.0762261
0.0444296
0.0597734
0.0727864
0.0832758
0.000882259
0.000889087
0.000882878
0.00088189
0.000893379
0.00088204
0.000880823
0.000887004
0.0008864
0.000874072
0.000869965
0.000854099
0.000868433
0.000886323
0.00088142
0.000868355
0.000844612
0.000854104
0.000897479
0.000886241
0.000884852
0.000833148
0.000731731
0.00101736
0.000648726
0.000761615
0.00104294
0.00188455
0.000858236
0.000679967
0.000580788
0.00072792
0.00062568
0.000764135
0.000842429
0.00050548
0.000679174
0.000798687
0.000738123
0.00151209
0.000860101
0.00221179
0.000820206
0.000838669
0.00078779
0.000901077
0.000958697
0.000871561
0.000913992
0.000945771
0.000884172
0.000838272
0.000803552
0.000808317
0.000802849
0.000903118
0.000890827
0.000930858
0.000916624
0.000887686
0.000886196
0.000888512
0.000865176
0.000943173
0.00081068
0.000902626
0.000937176
0.000804815
0.00640112
0.0122008
0.0108722
0.00858782
0.00224066
0.00616884
0.000745104
9.36433e-05
0.0100494
0.00174338
0.011502
0.00763935
0.0066066
0.000811263
0.00148081
0.00500964
0.00183601
0.00242851
0.000587661
0.00153023
0.00167216
0.00180403
0.00163516
0.00505357
0.00186252
0.00270205
0.00209617
0.00215702
0.00201444
0.00206167
0.00229622
0.00182845
0.00182677
0.00613516
0.00284105
0.00392156
0.0051149
0.00273191
0.00357755
0.00318248
0.00309616
0.00280777
0.00347625
0.00270049
0.000887016
0.000889626
0.000962328
0.00088199
0.000888377
0.00103386
0.000906806
0.000894855
0.000878159
0.000897557
0.00104613
0.000893115
0.000857197
0.000847956
0.000859858
0.000857307
0.000816453
0.000855711
0.00086186
0.000861937
0.000850851
0.00082101
0.000868053
0.000835371
0.000859616
0.000858363
0.0682307
0.0524441
0.0625239
0.0676602
0.0583708
0.0538356
0.0583041
0.0612877
0.0630953
0.0770335
0.0803986
0.0722692
0.0769083
0.0069825
0.00456254
0.00531606
0.00469872
0.00460436
0.006898
0.00426752
0.0067394
0.00458033
0.00409278
0.00431381
0.00359681
0.00306163
0.00269564
0.00400831
0.00660187
0.00432396
0.00613195
0.00651939
0.00961571
0.0043554
0.00294634
0.0142697
0.0121447
0.0280774
0.00769842
0.013803
0.00665041
0.00560006
0.011859
0.00710392
0.00632772
0.0084597
0.00518808
0.0079553
0.00557014
0.0115126
0.00608452
0.00412517
0.00446321
0.0104151
0.0052909
0.00472644
0.00544365
0.00664338
0.140082
0.149094
0.133125
0.111754
0.139814
0.133511
0.149616
0.147707
0.144622
0.153547
0.157056
0.000838034
0.000828871
0.000836564
0.000838515
0.000833717
0.00083667
0.00083614
0.000832569
0.000833423
0.000832403
0.000836166
0.000838507
0.000833808
0.000397549
0.00141609
0.000463028
0.00458559
0.000400841
0.00116944
0.000735969
0.000851921
0.00112261
0.00134899
0.000976289
0.00108105
0.00108048
0.00102689
0.00178098
0.000941437
0.0010659
0.00104359
0.0015593
0.000934903
0.000949905
0.000987738
0.000732554
0.000776431
0.000653881
0.000463034
0.000997992
0.000690774
0.000675617
0.00090909
0.000668246
0.000781328
0.000783899
0.00084244
0.00084713
0.000816601
0.000769604
0.000839389
0.000829308
0.000854615
0.000840116
0.000855168
0.000842066
0.000865371
0.000860481
0.000840086
0.000829279
0.000841707
0.000846391
0.000936107
0.000854813
0.000863475
0.000927898
0.000924472
0.000939336
0.000914064
0.000913575
0.0009333
0.000942395
0.000925795
0.000935448
0.000930398
0.000917615
0.000935232
0.000913867
0.000156433
0.000968984
0.00105265
0.000563576
0.000758804
0.000905238
0.000874243
0.000998603
0.000913229
0.000907046
0.000918143
0.000494375
0.000344561
0.000910326
0.000943205
0.000637173
0.00106589
0.00058503
0.0014341
0.00161789
0.000687987
0.00403745
0.00575401
0.00397932
0.00417252
0.00739433
0.00639205
0.00506995
0.00924458
0.0104933
0.00798137
0.00971034
0.0117341
0.0073479
0.00785303
0.00932016
0.0106369
0.00755957
0.0105012
0.0346954
0.108333
0.0400287
0.0518005
0.0409459
0.073712
0.0175074
0.0204417
0.0795433
0.0180961
0.0455483
0.102892
0.0504505
0.026157
0.0451576
0.0342062
0.0150409
0.043473
0.0444763
0.020136
0.0595241
0.0420358
0.0245611
0.0158211
0.0440543
0.0520527
0.0533414
0.00428112
0.00979944
0.0105303
0.000128294
0.00411558
0.0923968
0.0128995
0.0734344
0.00345899
0.111988
0.0215873
0.103768
0.166676
0.124243
0.0827127
0.0845496
0.167682
0.0804071
0.118498
0.047822
0.146824
0.110166
0.0663666
0.0876805
0.11802
0.0992848
0.100765
0.139611
0.114998
0.0935884
0.077217
0.104035
0.0892683
0.0766872
0.081971
0.132202
0.122363
0.0921295
0.00848559
0.0122566
0.0168837
0.0101535
0.0073656
0.00999129
0.0040854
0.0117688
0.00359706
0.00947718
0.0175661
0.0158999
0.0147867
0.011406
0.0128161
0.0100886
0.0138842
0.00709355
0.0202438
0.0150692
0.0680437
0.0753169
0.0490262
0.0450745
0.0488936
0.0368415
0.0435028
0.0621515
0.0881147
0.0794152
0.0228732
0.0640553
0.0892746
0.0642481
0.00906182
0.00086331
0.00356112
0.000445867
0.000785494
0.000721408
0.00694009
0.00164357
0.00536637
0.0062807
0.00666169
0.00600158
0.0010839
4.02635e-05
0.000852069
0.00172648
0.00318427
0.00303912
0.0859027
0.116012
0.107274
0.125074
0.148046
0.107699
0.179422
0.0175277
0.17781
0.0746561
0.0445367
0.01718
0.0442213
0.0588148
0.105795
0.0209796
0.117275
0.0819272
0.0314717
0.0443071
0.00378262
0.033373
0.000784954
0.000825407
0.000571466
0.000622122
0.000800397
0.000799935
0.000798422
0.000735355
0.000778947
0.000861478
0.000768995
0.000781153
0.000732879
0.000715519
0.000721992
0.000707424
0.000737664
0.000794216
0.000776354
0.000733772
0.00143038
0.0042503
0.0112085
0.000914467
0.000193273
0.000635184
0.0119298
0.000102182
0.00338918
0.000817652
0.000820597
0.00486093
0.000760404
0.000796727
0.00528955
0.193953
0.298057
0.21182
0.322245
0.274073
0.309994
0.330293
0.169865
0.00365885
0.00262773
0.00773964
0.00633349
0.00669702
0.00181789
0.00315591
0.0016636
0.00693529
0.0048695
0.00184575
0.0047999
0.0227789
0.0321351
0.0985125
0.0672999
0.025927
0.0397074
0.0956904
0.0967102
0.0916461
0.0922348
0.0144375
0.0903481
0.0938952
0.0188455
0.0726658
0.0452134
0.046216
0.0583064
0.000790749
0.0017049
0.00199982
0.00243541
0.00223707
0.000752475
0.00100359
0.00177563
0.00165483
0.00211495
0.00307519
0.00140491
0.00126034
0.00233814
0.00117796
0.00271159
0.00323487
0.00156346
0.0222055
0.0224324
0.0327076
0.034602
0.0282773
0.0314088
0.0180103
0.0213868
0.0247881
0.0366701
0.0315494
0.0229144
0.0414402
0.0228067
0.0312091
0.0325257
0.03093
0.0217566
0.0204957
0.0323611
0.0320573
0.0196713
0.000919368
0.000912768
0.000925126
0.00093704
0.000917337
0.000929025
0.000922132
0.000910897
0.000919284
0.000927043
0.000933116
0.000926718
0.000926956
0.000921258
0.000925916
0.000919388
0.523375
0.470404
0.459342
0.512368
0.441172
0.495216
0.285966
0.253998
0.184078
0.181098
0.183728
0.189724
0.356204
0.195519
0.226939
0.167505
0.223987
0.277769
0.0289786
0.048796
0.0447813
0.0292306
0.0158437
0.0108578
0.0228105
0.0279996
0.0363618
0.031058
0.0170644
0.0142007
0.012745
0.0146359
0.0248033
0.0178044
0.00214825
0.00075131
0.000723631
0.000729978
0.00110951
0.000767154
0.000777193
0.000798476
0.000609403
0.000552782
0.00295835
0.0022723
0.00399691
0.0001797
0.00070256
0.000589623
0.000651225
0.000717148
0.00169243
0.00327945
0.0524315
0.0527142
0.0488338
0.0317263
0.0106521
0.0305894
0.00303464
0.0265591
0.03296
0.0435319
0.0119101
0.0102475
0.0205669
0.023429
0.0134919
0.0153363
0.0151761
0.0151231
0.0124905
0.0245028
0.012794
0.0190749
0.00357156
0.0127001
0.00480272
0.00306805
0.00350088
0.0031456
0.067882
0.055925
0.0400607
0.0624568
0.0760588
0.0282086
0.0202833
0.0523582
0.061784
0.0596333
0.0219428
0.0166158
0.0382067
0.0406781
0.0342275
0.0247499
0.0328259
0.0131515
0.0120008
0.00220646
0.0132659
0.0126814
0.0144481
0.01361
0.00984475