/*--------------------------------*- C++ -*----------------------------------*\
  =========                 |
  \\      /  F ield         | OpenFOAM: The Open Source CFD Toolbox
   \\    /   O peration     | Website:  https://openfoam.org
    \\  /    A nd           | Version:  10
     \\/     M anipulation  |
\*---------------------------------------------------------------------------*/
FoamFile
{
    format      ascii;
    class       volScalarField;
    location    "9";
    object      omega;
}
// * * * * * * * * * * * * * * * * * * * * * * * * * * * * * * * * * * * * * //

dimensions      [0 0 -1 0 0 0 0];

internalField   nonuniform List<scalar> 
75457
(
33.0132
34.7183
26.4275
21.1728
25.2506
34.17
28.3126
34.1585
17.1373
16.9445
15.9723
19.89
19.4085
17.4045
2.39031
2.38199
2.02774
2.38773
2.31892
2.04149
2.20493
2.229
2.40975
2.37539
2.29686
2.55926
2.58533
2.10224
2.20649
2.14623
1.99332
2.29409
2.35207
1.95957
1.92813
2.01753
1.95173
2.46966
2.37179
1.96643
2.03032
1.94992
1.94489
2.54591
2.72422
2.31195
2.23919
2.49267
6.11964
3.402
4.83166
5.59373
13.8794
4.63832
3.70792
3.90429
7.824
8.73281
7.9301
15.3423
11.9927
6.57162
8.73589
7.19614
7.07495
8.00114
6.68256
8.29332
8.49658
13.9392
8.20273
14.5381
7.76618
7.7477
8.06676
7.15125
7.59994
15.0042
11.2057
6.96673
16.1318
11.0529
12.7994
8.21975
5.85343
5.5351
5.839
6.31202
13.4116
14.8552
8.19616
6.33933
13.3668
8.3467
5.66774
3.36881
3.66621
3.89978
23.9507
6.82253
8.37119
10.9906
22.1336
20.0088
39.5947
41.0932
20.8221
18.698
20.4571
7.25749
5.64802
15.735
15.6783
13.4167
5.3166
9.85059
22.1245
9.21247
8.60742
24.2297
6.03354
6.75115
6.69554
6.41162
7.60726
7.58076
15.3634
6.45808
11.4376
7.19697
6.85629
6.91027
6.54725
6.06797
3.32184
15.3095
7.032
5.45208
5.71671
24.65
4.40287
5.38427
6.63668
4.3325
4.54988
5.96472
7.10105
8.23072
17.9054
5.06426
31.642
9.33971
5.11648
4.13858
8.94709
13.6836
4.37765
27.1959
5.29683
6.98417
22.5306
5.34129
8.31364
6.03914
6.26053
6.53089
6.22444
6.3976
5.78605
5.78428
6.06721
6.29348
6.01756
6.14179
5.95518
5.81533
8.67145
7.91096
7.57612
11.6129
4.69062
22.3351
3.86588
12.0983
28.1066
5.1622
3.804
9.59252
17.8496
39.4228
7.82214
7.85284
8.49907
13.0114
6.29599
24.7914
4.01216
4.60033
4.06373
4.40699
3.91501
7.48598
8.69867
12.9257
6.26813
7.17931
12.9938
11.686
12.5631
12.6853
11.1132
11.3941
23.5492
26.2783
9.54052
10.9751
25.1648
11.0091
27.5395
25.6832
26.3409
8.57757
12.1465
23.2895
10.6094
11.3962
27.7985
13.2361
7.85787
20.2506
5.0562
4.95514
19.8268
8.36137
9.68167
7.19505
9.29511
4.47904
4.76989
5.01332
5.26836
9.02913
21.5087
7.15039
16.4984
10.0944
6.94735
7.30237
10.8864
24.6598
10.458
21.7986
9.79531
19.7628
7.97537
14.0825
6.3536
4.62226
5.35756
3.28147
3.67917
4.09967
4.50293
6.14422
9.99699
17.9454
12.1905
30.0345
17.1495
19.8996
26.5529
16.8895
5.89816
6.29846
10.0779
6.11348
10.4248
11.4803
17.4426
10.2264
9.51183
16.2727
9.75272
15.3468
7.47345
14.7579
6.80701
4.20814
4.2117
5.48208
5.08148
5.48487
5.06187
20.671
15.5193
24.122
15.8876
8.37717
8.45247
22.4883
8.307
8.66661
25.4673
3.56372
3.52386
1.55067
21.7116
2.53356
2.32371
21.7116
1.15232
3.06253
5.09178
2.63706
9.13048
9.57067
8.45858
8.99263
10.9288
22.387
9.17041
5.8014
6.45143
11.3303
22.387
4.48996
4.56891
5.10356
7.95517
12.7533
10.772
9.54255
11.1003
25.5538
5.62626
5.78482
8.62288
7.85243
30.8499
9.80272
8.27913
29.3476
7.21345
4.93975
18.5105
6.31936
10.7848
6.94143
18.5105
5.81553
6.30638
9.73744
6.52225
4.55925
9.14046
8.03139
9.95057
28.1051
8.23556
5.45276
15.6831
22.5895
16.1662
22.0169
4.4007
4.12496
5.3476
5.01753
7.31866
6.37395
10.9018
6.16585
6.75862
8.60593
22.989
12.4944
11.3665
7.55811
18.6003
6.37887
8.58091
8.24422
15.9208
15.9208
18.1486
4.14063
8.62008
8.72457
4.85899
4.28698
8.23906
4.52166
4.57548
4.42049
4.41047
4.57949
4.59538
4.50953
4.57845
4.60413
4.61159
4.52214
4.43091
4.52316
4.48705
4.44757
4.5644
4.44077
4.41739
4.36677
4.36538
4.44528
4.38153
4.46245
4.3951
4.49587
4.47762
4.36681
4.42962
4.41394
4.4629
4.44872
4.26157
4.32425
4.33675
4.37381
4.31952
4.352
4.38547
4.43628
4.26543
4.3042
4.26674
4.26156
4.32282
4.36874
4.33697
4.41832
4.34863
4.3737
4.33941
4.37486
4.33156
4.36143
3.70207
2.86043
2.87541
2.87311
2.85748
3.51286
2.877
2.84255
2.74387
3.78133
2.69907
2.78747
2.7782
2.82533
2.64963
3.39468
29.2685
19.9556
17.6813
16.9399
12.9384
13.1811
13.9009
16.2457
12.6428
13.1239
31.8929
31.9871
27.4112
19.0009
13.5916
10.652
3.56471
3.5076
3.76796
3.90648
3.70412
3.62309
3.55306
3.50629
3.59506
3.62498
3.65715
3.84702
3.82089
3.59907
4.67969
3.72193
3.64148
3.64739
4.55632
4.6109
4.57582
4.5057
4.47806
4.51477
4.529
4.54238
4.54048
4.52522
4.55547
4.62671
4.54392
4.58311
4.60583
4.62352
5.82982
5.59539
5.91616
5.59122
5.36258
6.01545
6.35955
6.03461
5.86307
6.0341
5.87351
5.76013
6.01471
5.73817
5.8087
6.24534
6.33684
4.70226
4.86195
4.67011
4.69974
4.6218
4.59063
4.67334
4.8022
4.60119
4.49849
4.71385
4.55388
4.49194
4.50464
4.5675
4.4403
4.61247
4.50125
3.83753
4.38282
5.412
3.28635
4.68262
3.57762
4.4167
3.46376
3.43958
4.12566
5.39154
4.62822
3.82319
4.11496
3.51175
5.1686
5.39576
2.16235
2.1555
2.19958
2.42584
2.05622
2.51225
2.16732
2.15467
2.16367
2.65105
2.28346
2.16728
2.2172
2.09632
2.55024
2.5124
2.74247
2.51961
2.83836
2.81294
2.78089
2.60481
2.53234
2.84279
2.87183
2.82393
2.57172
2.44366
2.46023
2.71569
2.58209
2.68031
4.25679
4.26967
4.29346
4.51164
4.56873
4.28966
4.29032
4.49846
4.42352
4.47558
4.26865
4.54684
4.038
3.50066
4.34779
3.32532
4.24982
3.89693
4.20987
4.18289
4.1605
3.01018
2.88048
3.00686
3.3827
3.23175
3.01772
3.27161
1.99162
2.64905
1.9407
2.42772
3.73856
3.43491
4.28428
3.27
3.12151
2.51079
2.27246
2.08437
3.86257
2.2029
2.32661
2.58873
3.64278
3.62208
3.64262
3.67787
3.80252
3.69165
3.64077
3.59575
3.58177
3.67289
3.70333
3.67282
3.69119
3.75917
3.76374
3.66995
3.63482
3.7083
3.58506
2.47065
2.44286
2.17926
2.76843
2.40775
2.68575
2.60226
2.28131
2.44289
2.14665
2.64848
2.53251
2.41598
2.43139
2.79842
2.62742
2.69031
2.77971
2.62248
2.70988
2.51279
2.47881
2.55167
2.38526
2.40001
2.66791
2.52932
2.46941
2.51777
2.31626
2.35796
2.49942
5.08996
6.30712
6.39626
3.98376
3.98145
5.46741
4.76926
3.3933
3.70915
6.90932
5.5841
7.21382
6.58914
8.04303
8.45531
7.48967
6.73891
6.83519
6.60902
6.85221
6.82532
8.3349
9.58571
9.65366
7.94207
8.667
8.44265
6.94751
7.88073
8.90828
8.7186
8.13391
2.72688
2.7635
2.99512
2.85475
2.8604
2.65651
2.79211
2.80034
2.7768
3.47488
3.8425
4.32397
2.60033
3.79289
5.12513
3.51025
4.37607
2.03869
3.27013
4.58323
6.14379
3.18785
3.60626
10.2417
7.63054
3.90593
6.95111
4.44737
4.36142
4.0672
4.24681
4.97141
5.17554
6.09624
6.87011
6.79069
6.46965
5.35842
6.95823
6.17763
6.81583
2.07488
2.13358
1.86565
1.89515
1.94178
1.89638
2.01957
2.04993
2.48747
1.99883
2.17694
2.2416
1.86369
1.92834
2.32744
1.93002
2.17042
2.13959
2.06642
2.48585
2.55739
2.01036
2.59625
2.31608
2.77163
2.34013
2.31663
2.99777
2.81173
2.20157
2.55838
2.82556
2.63651
2.60183
2.9259
2.22126
2.39657
3.13973
2.67189
2.29915
2.07007
2.09748
2.6751
3.40006
2.12362
2.21636
2.81076
3.17715
2.15744
2.13871
2.44616
2.18714
2.20868
2.647
2.74181
3.13111
2.24863
2.21272
2.40723
3.15925
2.18596
2.15402
2.41422
2.10577
4.07803
5.55342
2.10497
2.28142
2.5893
2.95784
2.28611
2.43362
2.8145
3.46765
4.10892
3.72322
2.44371
2.35541
2.20919
2.70371
2.40625
2.66334
2.65112
2.47256
2.51087
2.51335
2.42099
2.3485
2.44853
2.44829
2.51919
2.44435
2.33781
2.5475
2.62622
4.45136
4.7381
4.83903
4.53585
4.6912
4.73971
4.85016
4.6119
4.70338
4.81615
2.99431
2.65395
3.00823
3.372
2.50828
2.48328
3.31958
4.04027
2.57135
3.28737
3.15345
3.16232
3.54185
2.56012
3.43016
3.16709
2.49408
5.71655
6.03693
5.8725
6.25743
5.95077
5.64773
6.18416
5.88292
5.72238
5.68168
5.81017
5.69564
5.99466
5.69042
6.07633
5.55413
5.65144
5.46828
5.63331
5.49489
4.76533
4.83474
4.74607
4.77346
5.02287
5.16103
5.60782
4.91803
4.91167
4.78933
5.48633
5.544
4.74549
4.85995
5.09488
5.83073
9.76944
8.38556
7.3547
7.68398
11.6564
9.32567
12.1397
11.6541
9.47692
9.23724
11.924
10.6368
10.1972
2.94542
3.17718
2.95817
2.79735
2.70983
2.76076
3.11609
2.98789
2.79325
2.8332
2.53514
2.85568
3.8541
4.2615
4.00095
3.89871
4.19744
4.10965
3.77177
3.74055
3.70467
3.77463
3.80068
3.77059
3.86035
3.83275
3.92599
3.85828
4.03238
3.85829
3.85836
3.93142
3.92338
3.74818
3.74078
3.97708
2.9401
3.41095
3.7823
3.47653
2.76467
2.7725
3.36491
2.61615
2.98624
2.9278
2.70334
2.68782
2.95134
2.74446
4.53701
4.96889
5.58846
5.24796
4.93325
5.01346
5.14471
5.03229
5.93065
5.37189
6.0831
6.01208
6.21854
6.64662
6.0718
6.0007
4.50305
4.92046
4.64192
4.41207
4.40771
4.49378
4.42593
4.39832
4.42634
4.51774
4.59804
4.49282
4.57144
4.58111
4.81518
4.65509
13.2001
12.071
12.7693
12.152
13.9925
12.1066
5.84799
6.48583
5.94143
6.34866
6.11145
7.01923
9.07154
11.0152
10.8595
8.4114
10.2383
10.3343
6.93588
10.3385
6.67534
7.62986
7.34513
7.07204
6.83503
7.15218
7.7349
7.37504
6.89232
7.30961
7.37764
7.05625
7.49093
6.96123
7.13065
4.98979
5.30262
5.27197
5.30562
5.90279
6.2608
7.0882
6.03627
7.40319
7.82986
7.39536
6.61838
8.37159
8.85128
3.73445
4.1346
3.62278
3.72068
3.59922
3.8083
3.42103
3.2318
3.95482
3.47168
3.61258
3.22409
3.3818
3.21353
3.23889
3.18994
2.37727
2.42221
2.31492
2.34258
3.58101
3.66627
2.17742
2.84989
2.87409
2.18551
3.48086
3.27411
4.08199
3.21568
3.22674
3.74073
3.63252
4.35301
4.48186
2.65902
3.31735
2.9987
2.86828
2.75127
3.85514
3.12894
3.3827
3.62418
3.42901
2.58861
2.63332
2.88145
2.66391
3.59818
3.36876
2.77562
3.15382
2.90751
3.02053
2.62528
2.74407
3.14547
2.81831
2.75849
8.26432
7.19353
7.20681
8.1326
8.51947
7.55186
7.3865
7.58057
7.54765
7.47559
7.61847
7.45164
8.22226
7.99112
8.07836
8.3324
8.04453
7.84146
7.40565
7.86257
3.11052
3.07171
3.03508
3.00428
3.03776
3.19424
2.95649
3.03854
3.17449
3.0476
3.01559
3.00952
4.77611
7.04732
24.3272
5.40544
18.6579
6.37118
11.3984
20.7533
22.3358
5.13667
11.5564
14.2773
23.9266
6.64555
11.3775
3.96927
8.34362
5.26368
4.64434
8.08277
9.53329
7.53638
4.5965
3.8966
3.82821
12.2341
14.2002
13.5019
15.0616
3.78949
3.93712
3.79036
3.64236
3.76641
5.52179
6.24068
5.15686
1.97307
2.26403
1.84618
1.97428
1.84971
1.8024
1.77698
1.84315
1.81608
1.81801
1.91344
1.84528
1.83516
1.82352
1.83141
1.82966
5.63739
5.68127
6.35434
6.14223
10.7071
9.02632
5.41818
7.01201
8.26756
7.53275
8.35588
7.41058
3.77585
11.6113
13.5876
9.66617
12.4335
4.50937
2.77224
9.603
2.83577
8.47081
16.6507
4.7575
8.15615
4.06199
9.91917
18.8361
10.0747
2.71655
4.37976
5.14022
19.7982
4.48898
6.5896
8.02645
12.6771
4.16095
8.05259
3.71551
21.204
5.85981
7.10155
25.4386
5.37381
8.47783
7.7786
7.66553
16.1287
5.61352
6.56619
11.1253
15.0902
4.47755
3.96415
8.60863
3.84264
8.78005
16.0296
8.63642
3.49124
3.88738
14.8882
9.30559
3.85135
3.52374
4.35286
3.64078
2.60084
3.0583
2.76495
3.71986
3.85935
2.33369
2.46397
2.489
3.43973
4.25798
2.83658
3.07055
2.4615
3.38296
3.5282
4.33574
3.67836
4.08675
4.12455
3.89939
3.93873
4.67137
2.79247
3.62777
4.26365
3.94672
5.93469
8.39468
5.2882
11.8959
11.5795
10.987
10.7665
12.2778
10.6227
10.1916
10.7807
11.1135
11.056
12.3972
12.9183
10.2081
10.4367
10.8164
11.2229
10.9129
12.388
11.6184
10.8058
8.03911
9.92432
6.84478
6.75244
10.6928
10.649
17.9926
15.8394
6.52449
6.90016
8.00587
10.288
11.3851
15.5855
8.0151
10.0552
6.45261
6.50316
7.27636
5.19383
4.51999
4.53695
4.07663
10.6408
15.0732
9.66864
11.7792
4.68097
4.43459
11.5038
7.61757
4.78052
6.37628
12.3734
7.86495
6.02151
11.0688
6.08016
10.7302
2.24524
2.23528
2.64773
2.30621
2.6038
9.08101
11.6601
5.14636
5.47058
3.62638
3.43783
2.66121
3.4815
3.23126
6.51673
3.11412
2.56605
2.29795
3.15883
7.56365
6.57338
6.73509
6.81081
8.06461
11.6922
6.70744
6.41829
6.13685
6.79535
7.42998
13.9296
11.6442
6.92091
7.93171
10.6658
24.4806
22.8338
24.0485
26.0453
30.4422
27.4798
30.3353
43.4254
40.9914
36.5477
32.3047
31.6978
44.703
33.7508
32.5186
31.24
38.9013
38.7567
39.4787
29.3597
7.92977
9.55374
7.80111
10.0772
6.24572
6.65773
4.24198
5.25909
11.9042
8.11216
16.9498
9.26403
4.65613
4.43445
14.0212
11.0129
16.9046
8.76266
18.9609
6.51218
30.6413
37.5231
41.4732
55.8865
42.0924
29.8293
24.6176
39.5075
47.11
41.9993
45.3318
35.6069
62.5754
41.0426
79.0077
80.9908
55.2758
3.21686
11.9327
6.88334
31.722
6.01102
5.79179
8.42928
7.64735
39.1237
7.482
1.96876
21.0566
12.1251
11.5942
15.2053
14.5459
13.1315
11.6017
10.9372
10.6836
14.0172
15.1339
12.5936
12.9307
12.8427
14.1881
11.5764
12.893
12.8168
12.0116
15.4361
11.2184
11.3291
5.80662
5.69678
5.49027
5.62823
6.32119
5.87133
6.30694
5.73756
5.51528
5.63586
5.59128
5.47308
5.41412
5.3662
5.83179
5.6811
5.59826
5.4991
4.81821
5.25425
4.80624
4.97806
5.08592
6.30681
4.77041
4.94971
6.07379
6.94994
5.12904
4.84383
5.0712
5.90471
5.15342
6.0176
6.44085
6.43905
6.06802
5.69941
6.55402
5.56692
6.34037
6.22715
6.34892
5.5973
6.23786
6.21846
6.25575
3.16476
3.23677
3.20625
3.35788
3.08522
3.04655
3.16785
3.14956
3.52639
3.68183
3.14448
3.15585
3.20765
3.32398
3.51832
3.43671
7.11938
7.1726
7.30793
7.11523
7.08099
8.10943
6.96677
7.06385
8.47314
7.27331
6.58658
6.41608
7.12023
7.85182
7.6867
7.21935
7.25714
21.8396
21.9961
16.7863
18.1166
19.6364
21.9376
25.1962
25.5073
18.6396
19.7754
25.5628
30.1085
24.8699
26.6352
23.7603
25.1503
24.1291
7.52417
5.86152
5.46863
7.67107
5.1764
12.9488
20.101
5.32637
11.4176
11.341
8.06934
10.2592
11.5306
5.6107
3.29401
10.2197
22.5995
4.15228
8.28423
6.7979
5.6396
4.64062
4.4708
6.87835
6.56699
5.28042
5.1711
4.93288
4.82186
4.78482
5.01055
4.65568
4.49799
4.8664
4.59912
4.64281
4.86739
5.27055
4.69325
4.69052
3.67792
3.46222
3.25125
3.46338
3.95974
3.34991
3.27783
3.28107
4.12512
3.29866
3.43059
3.47851
3.67712
3.33636
3.17428
3.11381
5.35764
4.37679
4.77138
5.65347
4.73224
4.28513
8.82218
5.77771
6.13986
6.07927
13.9512
8.1136
4.94619
8.9855
4.33198
7.16947
8.89278
13.7422
16.2338
10.0666
14.4345
16.7738
10.6745
15.3147
11.2181
7.8454
5.83895
4.54282
14.5751
9.71789
11.0626
3.03223
4.34765
11.4204
3.89682
10.3495
9.43974
3.79846
3.49781
3.2835
8.06696
5.47609
5.49419
5.36782
6.71616
5.50361
5.54824
6.54119
5.61319
5.74949
6.71752
5.67664
5.71793
7.64505
6.54379
9.81989
6.02441
7.45538
8.76812
9.92407
8.92826
8.19662
7.04822
5.51401
4.41547
4.50377
4.68889
8.39366
6.93299
7.28815
6.92353
6.49044
4.19225
6.17666
7.57793
7.64508
18.2014
17.6364
6.36982
6.43819
6.89026
20.7229
8.41577
12.1146
7.45289
3.3065
8.99296
14.7185
6.10095
4.80254
4.0332
9.61784
8.38878
14.2232
16.2815
6.66183
9.08522
9.94579
4.13292
6.18252
5.89399
4.43018
4.40467
9.58297
8.76044
10.0678
15.7841
6.93567
10.2786
4.48025
4.17556
7.81338
4.34276
4.64505
4.68536
4.1031
4.65692
3.87103
3.70591
3.84121
4.67509
3.57698
3.38621
3.59956
3.55026
3.34337
3.20107
3.28661
3.29431
3.29467
1.96767
1.99402
2.06251
2.04066
2.02314
2.16673
1.93628
1.90556
1.9962
1.96509
1.92135
2.15907
1.99569
2.09484
1.98407
2.091
1.99352
2.02686
2.02889
2.38623
2.21706
2.02554
2.23559
2.01996
1.98834
1.96264
1.79404
1.6699
1.61932
1.81041
1.88932
1.60998
1.61218
1.75381
1.76823
1.60816
1.69545
1.66127
1.67434
1.67582
7.36569
7.10136
8.81184
8.84433
8.50588
8.66986
7.89243
6.75149
7.54965
7.90931
7.0712
7.28628
7.09956
6.43963
9.22717
7.72581
8.53854
3.93952
3.4582
3.95088
7.64755
6.32146
3.46092
3.75107
3.73846
3.29941
4.61986
4.91665
6.97744
3.01617
2.9451
5.14413
6.45377
2.48879
2.62257
2.60836
2.64609
2.94119
3.93845
2.86533
9.53996
7.36896
3.32475
3.20213
4.77964
5.63802
8.29493
6.04542
6.30453
7.14839
7.99696
15.075
20.8293
10.6751
19.9519
4.41498
7.43523
4.20391
1.82844
1.78511
1.8371
1.78406
1.68686
1.82778
1.75959
1.74183
1.87003
1.92391
1.84485
1.79983
1.74855
1.80479
3.2102
3.15099
2.79777
2.78344
3.99319
2.58265
2.76156
3.77087
4.36572
3.75714
4.61453
3.50405
3.06427
3.84004
2.46119
6.81618
2.15986
19.3013
19.3013
2.62593
19.3013
4.79395
4.96842
10.4154
5.14266
5.49346
4.86137
4.20878
3.88909
6.83895
4.26617
4.55473
5.41082
20.3895
24.2403
25.6157
20.3895
21.2795
21.4976
23.7101
19.6297
23.474
19.537
9.97354
10.6324
7.63575
11.7936
4.27904
3.88638
3.49116
4.78307
7.14406
8.73593
10.4199
9.98908
8.75401
3.67454
3.84628
2.76102
7.94478
9.4904
3.84469
3.73957
3.63505
4.03976
3.71307
4.88381
3.3554
3.52611
4.75236
12.2309
3.9949
3.29945
3.4749
12.2309
7.4249
12.2309
4.27479
3.06927
3.06171
4.35277
4.33346
3.33521
7.99303
7.86989
7.45944
8.00184
7.59283
7.28372
7.67047
7.53942
7.08882
7.44956
7.15629
7.49628
7.7773
7.52945
7.1562
6.78117
7.01933
6.73974
7.22574
7.85269
7.82536
7.44885
7.69842
7.28488
7.20226
6.54973
6.00685
6.3289
6.01399
7.15512
7.21391
8.19938
7.81844
5.95206
5.96485
6.11467
7.04421
29.2618
29.9933
24.9812
23.6192
38.8025
31.9781
36.7124
30.943
29.0106
45.8789
35.6819
37.5586
37.1948
44.0147
58.1745
55.9084
4.68077
4.88269
4.87763
4.66301
4.62513
4.66551
4.68824
4.60831
4.81001
4.80352
4.55378
4.71697
4.5644
5.45119
5.19196
5.49201
5.47165
5.39489
5.10445
5.76686
5.53833
5.72357
5.47761
5.63658
5.75942
5.35035
5.50224
5.37059
4.87892
4.95192
4.75235
4.82816
5.15338
5.05996
4.73424
4.76135
5.10723
4.91704
5.01007
5.0406
4.93389
4.95716
5.0935
5.26943
9.95664
9.9107
9.72631
9.10147
9.25384
9.61175
8.94224
8.7837
9.22564
9.37033
11.2139
11.0176
9.50849
9.18486
9.32066
9.3997
10.8524
9.75233
9.91131
9.72789
8.1933
7.98231
7.64324
7.30072
7.90654
7.76356
8.5285
7.88329
8.83343
6.65967
7.08127
8.57384
7.37445
8.10986
8.60977
9.49385
8.7629
8.64748
9.72126
9.85233
10.3143
9.14635
9.54372
10.5893
9.19059
11.3955
12.0042
11.3739
9.92393
9.03671
10.5478
12.4319
11.059
12.8449
11.9827
12.1906
10.1492
13.5967
12.1911
11.1608
10.7171
11.5586
12.4219
9.96939
9.73022
9.56655
10.3448
11.1189
3.34158
3.09461
3.04115
3.01637
3.48598
3.36845
3.327
3.46731
3.53751
9.17257
9.5699
8.48243
8.51691
9.15003
8.3512
8.26253
8.69706
7.93469
7.77575
7.85647
7.82434
8.09504
8.87395
8.34312
7.89458
8.18687
8.3745
8.70744
9.23618
7.87688
8.6048
3.7511
3.80691
3.74498
3.75507
3.77507
3.91457
3.80929
3.65309
3.79338
3.70221
3.78958
3.66761
3.80351
3.62734
3.63612
3.67067
3.7102
3.67964
3.70077
3.67831
4.97674
4.76573
4.86977
4.67364
5.01429
4.76585
4.84446
4.94475
4.87501
4.78084
4.80926
4.62398
4.69156
4.73943
4.69868
4.93005
4.83584
4.95312
4.63372
4.8217
4.68689
4.92419
4.65192
4.51026
4.59572
4.61869
2.74931
2.93572
2.89871
2.77003
2.62395
2.63592
2.46212
2.56657
2.88424
2.51836
2.91175
2.70764
2.66879
2.40548
2.44564
2.68041
2.47599
2.46466
2.46407
2.47862
2.49885
2.53873
2.52991
2.68973
2.47558
2.53124
3.21963
3.26964
3.35856
3.34381
3.14639
3.18012
3.19826
3.72476
4.13086
3.6607
3.55484
3.22955
3.28008
3.30556
3.36744
3.32715
3.47837
3.28669
4.22331
4.30033
4.47521
4.25292
4.1591
4.38778
4.41825
4.1302
4.14589
4.24786
4.33434
4.14808
4.08604
6.46035
6.98237
6.5318
6.21361
6.53856
6.93656
7.44558
6.79672
6.74773
6.42978
6.58392
6.99588
6.6364
3.65811
3.14991
3.52505
3.58764
3.40542
3.27675
3.46911
3.50932
3.47985
3.74282
3.73662
3.60726
3.71829
2.48401
2.21414
2.2216
2.23278
2.24229
2.45347
2.37564
2.45334
2.24432
2.23066
2.30469
2.32164
2.23941
2.24226
2.28422
2.22824
2.17533
2.21894
2.30521
2.31623
2.2534
2.27754
2.45071
2.4352
2.68373
2.2977
2.38952
2.34061
2.32115
2.40067
2.35336
2.54598
2.52953
2.48185
2.46557
2.49628
2.55942
2.53945
2.45807
2.43376
2.51829
2.58792
2.49526
2.52371
2.59676
5.95759
6.334
6.22938
5.11578
5.56705
5.23652
5.59342
5.23519
5.086
5.20346
5.17156
4.74447
4.65659
4.91655
5.11052
5.30038
4.85395
5.10066
4.93848
5.1549
5.17243
4.87201
4.88123
5.00802
5.56009
5.73839
5.57461
8.17245
5.65814
5.33907
5.47332
5.45339
5.50764
5.7708
4.60798
5.02556
5.23885
4.89192
5.97294
4.51062
4.89036
4.98616
5.48763
4.80878
5.12702
4.85137
4.87865
4.93468
4.69524
4.63979
4.68014
4.86869
5.11503
5.02382
5.22562
4.83254
5.07001
4.50596
4.57049
4.31748
4.35423
4.51469
4.6502
4.63726
4.67374
4.97074
4.97405
4.66118
4.58108
4.71918
4.82755
4.76558
4.674
4.83011
4.82177
4.7664
17.117
15.802
19.7467
14.2146
14.5047
18.3706
19.8399
16.3805
18.5615
17.3104
14.4849
18.668
15.6254
4.15028
4.22915
3.9573
4.03591
4.0925
3.88268
3.83478
4.02048
4.0382
3.93898
3.88452
4.25831
4.13979
3.85608
4.08438
4.05049
4.53727
4.10318
4.6924
4.49728
4.05072
2.38337
2.40364
2.38378
2.43416
2.43519
2.40482
2.47825
2.47976
2.43681
2.36812
2.51394
2.54415
2.37237
2.42566
2.38564
2.42244
2.45761
2.48535
4.19155
5.10301
4.26416
4.53004
4.52879
4.76098
3.47221
3.43796
4.78013
3.50854
3.61407
5.21765
3.73522
3.46745
3.56921
3.44593
3.47128
4.18188
4.45585
3.37854
4.26363
3.53017
3.45873
3.40528
4.0768
4.37366
4.42
1.76788
1.83287
1.84731
1.73819
1.85947
7.8471
8.41914
8.30234
6.10322
10.0107
6.14358
11.9956
13.169
14.07
12.0548
15.2937
12.2165
11.4775
13.1009
7.63832
6.70977
6.86779
6.63586
6.56275
5.51062
3.74437
4.24048
6.33653
5.73998
3.65222
3.48212
6.37868
6.45425
3.71306
3.54329
3.97789
4.34474
4.32185
4.96279
6.41408
7.43252
6.67243
9.83637
13.0737
2.09705
6.74233
3.3298
4.39472
19.0379
31.7037
22.0141
21.9059
9.89797
4.678
8.09075
20.3977
18.6278
6.95382
4.88879
5.14917
4.23982
4.06708
4.199
3.87475
3.9991
4.52182
5.60362
5.24143
3.58309
4.33958
5.12758
4.44783
5.09477
4.01334
4.82939
4.6914
3.67483
3.71873
4.66
3.44892
4.56244
4.98205
5.33546
5.01198
3.53416
3.41091
3.55383
3.60892
4.06495
4.01794
8.88282
9.92602
9.72882
9.29174
9.4874
9.40376
11.4236
8.91071
10.0928
10.6209
6.8535
6.83813
6.96537
8.03452
9.93472
7.70058
10.2743
9.98533
6.61835
8.27073
4.84993
6.59316
3.65059
3.63864
3.62397
3.58379
3.58206
3.51838
3.60054
3.64017
3.61069
3.60946
3.55623
3.50568
3.50218
3.61516
3.59457
3.54263
3.56769
3.54072
3.45834
3.50747
5.72814
5.92728
7.03485
4.63563
5.61272
4.75789
7.16787
5.09438
5.51263
4.45691
4.5202
5.45911
4.67224
4.51476
4.87593
9.00876
8.9117
8.7989
9.37619
10.0815
7.98069
9.32458
9.35464
3.03115
3.14644
3.113
3.13902
3.09938
3.09476
3.13176
3.21562
3.05612
3.05432
3.15884
3.07336
3.5684
3.66383
9.82376
5.39713
3.39972
4.03476
9.31423
6.93743
9.55645
10.0419
15.1862
7.50075
11.513
17.3314
7.15556
4.46034
4.44519
4.87884
2.98626
3.03362
3.001
3.01465
3.07745
3.0311
2.99254
3.16069
3.07894
3.07178
3.12437
3.18263
3.04688
3.03414
3.0635
3.17083
3.22189
3.09981
1.86742
1.87247
2.04448
2.09698
1.94484
2.04451
1.85604
1.87939
1.92687
2.16281
2.0053
1.91537
2.35809
1.94913
1.98091
2.01701
2.03322
1.90687
1.91248
2.093
2.00324
1.89301
15.8232
14.4454
16.3208
18.9295
15.1679
18.0704
15.9103
14.3572
17.0401
18.847
18.4838
17.0434
16.7722
15.6454
17.0031
15.2562
8.17432
7.73351
7.74232
8.86616
6.95143
6.5997
7.11858
6.37359
5.10166
5.15637
5.48162
5.43233
5.94909
4.94852
5.30659
5.57888
5.45062
5.68077
2.27688
2.72303
2.65857
2.31799
2.13111
2.04495
2.37742
2.45647
2.39484
2.28214
2.16681
2.19111
2.11004
2.0681
2.21767
2.11536
3.90715
3.87847
3.95573
3.89788
3.7441
3.89947
3.88205
3.89739
3.92025
3.90742
3.87106
3.92396
3.91016
3.8843
3.83298
3.82888
3.79696
3.79289
3.74031
3.75157
8.82731
8.62597
7.62377
6.65389
5.09101
7.19197
5.84023
6.31175
6.73413
7.94857
5.15049
4.88494
5.90616
6.13046
5.40117
5.71846
3.65996
3.6998
3.41723
3.48588
2.97172
3.46421
2.80723
3.29371
2.83636
2.61252
2.77588
2.60613
3.54891
3.00881
2.5331
3.24058
3.93898
2.13592
2.05373
3.41714
3.21316
2.95057
2.0105
1.92832
2.62863
3.08732
2.25839
2.14939
2.60572
2.82017
2.83701
2.84223
3.07482
3.12158
3.07556
3.13709
2.80153
2.88272
2.68787
2.76002
2.79187
2.74641
2.99132
2.98556
2.72355
2.87862
2.95324
3.67277
3.88546
3.35431
3.13058
4.34901
3.94137
3.44018
3.43943
3.88589
3.12979
3.17489
3.07241
3.0983
3.25057
3.27206
3.11695
3.23414
3.14308
3.60632
3.24616
3.2051
3.23035
3.2958
3.30499
3.26364
3.19783
3.31914
3.29968
3.23933
3.31523
3.23055
3.24466
5.92518
5.62507
5.68854
5.82584
5.56556
5.74666
5.84666
5.76636
5.68059
5.70022
5.67836
5.52077
5.50439
5.5084
13.3015
13.6465
17.8938
17.4828
18.3748
18.4896
13.2116
11.8366
15.4266
16.3634
13.5928
16.5855
14.4303
15.045
1.90234
1.93898
1.97803
1.97001
2.25705
2.39367
2.2761
2.40998
1.96664
2.17986
2.14454
2.14033
2.25809
2.12439
2.00715
4.84635
5.59666
3.89613
2.40266
4.20001
5.53858
5.95157
3.60925
4.00168
3.64321
3.67806
4.0206
3.70868
3.77049
3.62101
3.49193
3.74339
6.73046
6.56826
5.7004
5.8141
4.07341
4.03161
5.19857
5.56842
3.84413
3.68549
5.73175
3.87228
3.74031
3.76697
3.61915
3.81381
3.66016
3.7065
3.6223
3.55339
3.62912
3.4937
2.6716
2.68644
2.80819
2.81116
2.90667
3.3699
2.66118
2.64424
2.63527
2.97513
2.61264
2.52525
3.31035
3.09952
2.94983
2.87901
3.41416
2.58922
2.42334
3.58143
3.39979
3.39366
3.15538
3.63756
2.36676
3.03318
2.48677
3.43704
3.70481
3.17416
3.49049
3.86986
4.06394
3.4973
4.04243
3.833
4.16772
3.96898
4.26611
4.22908
4.13282
3.48266
4.03254
3.24462
3.29161
3.94411
3.73261
3.58845
3.43094
4.08892
4.12533
4.18394
4.11939
3.98413
4.09987
4.00504
4.03805
4.04992
4.03119
3.96803
3.98333
3.98892
3.94365
4.03779
4.04455
3.97956
3.9464
3.95431
3.93272
6.87614
6.59052
5.31255
5.70186
7.31924
6.24669
5.53084
6.54542
4.93137
5.04882
5.01366
6.72671
7.84133
7.42913
7.49834
7.55224
7.66644
7.45545
8.0196
7.87257
7.32963
7.36698
7.04999
7.1046
7.03815
7.95696
7.65299
2.25992
2.32852
2.27814
2.2538
3.02078
3.002
2.94048
2.78572
2.80047
2.43458
2.63849
2.18361
2.20639
2.54836
2.54538
2.40784
2.91041
2.90069
3.34936
3.1216
2.97812
3.88985
3.83201
4.30847
4.17935
3.60036
4.074
3.74554
4.05954
6.78921
6.09821
6.27894
5.89068
6.42129
7.73821
5.98403
6.07506
5.89935
6.11218
6.56853
8.05193
6.13224
14.4917
15.2513
15.148
12.5821
13.5303
12.7817
11.9804
9.14513
9.93322
15.2313
14.6322
15.8876
16.1735
9.99528
9.24348
13.7271
11.3811
9.8256
11.2602
13.855
4.75316
4.73171
4.6254
4.70851
4.52997
4.46254
4.93986
4.58401
4.64918
4.57612
4.93107
4.64698
4.66245
4.90773
2.73965
2.10593
2.15491
2.15239
3.75037
5.5611
3.0063
2.7876
3.52498
4.00824
2.18581
2.41652
3.28954
2.83372
2.06888
3.21458
2.61804
2.23194
5.87729
6.29145
4.57351
4.57222
5.87821
6.18384
5.78638
4.76731
4.85083
4.89427
4.7077
4.70634
5.98081
6.34103
6.72643
5.92327
6.48276
5.83975
5.74131
5.10097
29.3354
6.7385
13.7536
6.88036
9.28737
2.40551
2.37205
2.61832
2.75659
2.29648
2.38593
2.31025
2.26929
2.83074
2.5624
2.46095
2.54461
2.28061
2.40751
12.1069
12.277
12.899
18.3134
15.7461
18.0892
6.08743
7.67778
11.7496
15.4923
6.03959
4.76082
4.86773
4.94831
4.88036
4.62045
4.63494
4.75452
4.73356
4.86252
5.00871
4.87285
6.89611
7.0483
8.27599
7.87602
6.45113
6.04481
6.16024
7.63286
6.68195
6.22359
6.4123
5.77529
7.58399
8.2133
7.47075
5.59715
5.71659
5.49995
5.43838
5.6243
5.50391
5.22073
5.32399
5.27596
5.27955
5.52517
5.78777
5.39144
5.49779
5.434
5.3838
5.69208
5.82908
5.40292
5.62368
5.50938
7.71467
7.34074
7.35235
6.95154
6.72911
6.29123
7.59063
8.03326
7.17194
6.50359
5.92082
6.7934
5.81815
7.27356
5.82457
6.97866
6.38859
8.2624
8.20502
7.92594
7.80468
8.50537
8.90477
8.37059
9.43671
9.8111
8.78681
8.24063
9.13393
8.55495
7.49048
8.16104
9.08534
7.98644
8.2772
7.70453
8.35085
5.82274
5.96062
5.766
5.85132
5.5901
5.78446
5.94494
5.68821
5.73671
5.90005
5.88223
5.91065
6.12291
6.13298
2.67401
3.02063
2.84444
2.99214
2.93435
2.81999
3.44487
2.79984
2.88246
3.00523
3.77005
2.992
2.85108
3.90678
3.24769
3.80202
4.30793
2.86783
3.16865
3.54067
5.54249
3.7565
4.68825
3.2818
4.81548
2.01999
2.05403
2.20878
1.99605
2.11152
2.10757
2.0229
2.10228
2.14828
2.06521
1.97087
1.93859
2.01156
1.94318
2.01154
4.04417
4.11355
3.57239
3.31461
9.98653
11.1333
3.2846
11.7044
3.71177
3.94838
3.7128
6.53487
5.73517
10.5823
12.2165
8.25975
9.61121
8.51923
5.64849
5.90635
5.74333
5.61113
5.95868
6.61229
6.35285
6.13278
5.75151
5.58403
5.64615
6.28474
5.82516
6.53644
6.04722
6.72177
5.83187
5.75244
6.40615
5.92976
6.24646
4.59065
4.50189
4.51616
4.49441
4.51868
4.51762
4.59131
4.61182
4.54249
4.55452
4.61059
4.70278
4.811
4.72796
4.68725
3.62194
3.68735
3.64322
3.62997
3.67915
3.7505
3.70881
3.60261
3.94871
3.76389
6.73962
6.89432
7.15821
6.96124
6.54344
7.07352
7.52754
7.32007
7.31487
6.85168
6.74516
6.99346
6.14786
6.37464
6.84764
6.25811
6.95453
5.86673
5.5753
7.58118
6.71987
6.00276
6.09896
5.86636
7.25342
6.67243
6.31124
5.87125
6.18853
6.85737
7.21796
6.33535
2.97525
3.05102
3.06954
3.06647
2.55459
2.84121
2.5299
2.51412
2.49801
3.17977
3.29005
3.07793
2.55397
2.77379
3.32018
44.3259
15.0132
20.9616
10.039
17.8896
35.7633
31.7601
26.3133
12.9737
11.5622
11.7793
23.6692
15.8568
15.0572
27.3261
4.93178
4.78864
4.91887
4.87066
4.71419
4.83482
5.35574
4.94604
5.70118
5.08466
5.46653
5.0303
4.91606
5.11523
4.98732
4.80551
4.81011
4.86317
5.0374
4.67448
4.62546
4.96861
4.86771
4.95977
4.82791
4.80689
4.85063
4.68926
4.74609
17.4116
13.3721
21.0107
33.1291
24.2758
19.7054
17.148
33.1291
19.6044
3.10652
2.88034
3.18276
3.14784
2.84517
2.86136
3.27314
4.04833
4.00752
4.94514
4.88026
3.61063
3.7758
4.62437
3.314
4.20774
4.25629
3.32867
59.776
66.9521
81.155
38.2164
64.7934
75.0812
105.352
101.137
45.0832
89.1234
60.3071
61.1961
85.1135
88.1009
122.341
124.519
212.202
76.592
92.2321
122.496
204.111
62.2221
65.9196
62.0287
81.1258
63.6791
121.402
46.9802
46.119
82.0666
62.5243
8.6562
5.61565
7.11945
20.3751
8.33676
25.8599
4.85027
8.30657
14.6503
7.95662
9.50591
9.27949
10.536
9.53806
10.089
8.89163
8.39325
9.69278
10.614
9.75017
10.5893
10.4503
9.85725
10.2966
9.91107
14.96
15.0215
15.2536
13.9364
16.9695
17.1592
14.4035
13.2145
17.1571
14.7834
15.3962
11.601
12.6532
10.7832
13.7023
9.11071
14.9639
13.1003
8.56243
24.9358
23.4694
32.8685
28.7024
28.0428
26.8688
28.3109
34.7062
37.1005
35.9959
36.8173
41.8272
45.2188
8.35868
7.47229
12.8681
15.5058
7.94172
8.39035
14.7088
11.4517
7.49289
7.28056
11.8809
8.50934
8.07936
8.25535
9.66674
14.1138
16.1696
19.622
15.4214
19.0696
16.3769
10.4461
22.8538
13.177
22.5279
23.2153
22.4168
28.2473
24.9027
9.44677
8.58854
20.6685
26.5357
28.23
20.7144
3.34757
3.31386
3.22499
3.27887
3.29887
3.34313
3.37178
3.32329
3.1839
3.18139
3.3234
3.37142
3.28136
3.37487
3.35722
3.7465
3.57388
3.58889
3.25738
3.46085
3.61708
3.31793
7.35415
6.87378
7.19385
6.73879
7.13223
7.33926
7.81624
7.68855
7.34817
7.03599
7.12398
7.67337
7.1147
7.81438
7.50466
7.41069
7.1701
3.57237
3.76696
4.08693
4.06942
3.90835
3.70598
3.53944
3.58404
4.18503
4.41268
4.94646
4.88093
5.45904
3.23562
3.83399
4.03546
3.98561
4.35122
3.92107
14.9071
12.8714
8.22551
8.50705
7.71566
7.5121
8.46058
10.195
15.9725
16.2902