/*--------------------------------*- C++ -*----------------------------------*\
  =========                 |
  \\      /  F ield         | OpenFOAM: The Open Source CFD Toolbox
   \\    /   O peration     | Website:  https://openfoam.org
    \\  /    A nd           | Version:  10
     \\/     M anipulation  |
\*---------------------------------------------------------------------------*/
FoamFile
{
    format      ascii;
    class       volScalarField;
    location    "9";
    object      p;
}
// * * * * * * * * * * * * * * * * * * * * * * * * * * * * * * * * * * * * * //

dimensions      [0 2 -2 0 0 0 0];

internalField   nonuniform List<scalar> 
75457
(
-42.7678
-38.7691
-35.4022
-31.9179
-26.9369
-29.0726
-38.4549
-38.7008
-26.1394
-20.1572
-23.973
-26.5814
-26.3777
-23.9022
-5.216
-5.65617
-5.43111
-5.64535
-6.01044
-5.54888
-5.09069
-5.72797
-5.77869
-6.16651
-5.90785
-6.29085
-5.96265
-1.32516
-1.31163
-0.782481
-0.631818
-0.667916
-0.706806
-1.01007
-0.495366
-1.42743
-1.30488
-1.37614
-1.64251
-0.686241
-0.995805
-0.708122
-1.11763
-10.2058
-9.74863
-9.27997
-9.42185
-9.76292
-5.74323
-6.23123
-6.57408
-6.06248
-6.1616
-6.25304
-6.66958
-6.71078
-6.39881
-6.59602
-6.03251
-6.2891
-6.05624
-6.00624
28.7932
29.0735
28.8084
29.155
29.4048
29.4257
29.0639
29.1049
29.3926
29.175
28.8819
29.1655
29.1514
28.817
29.0391
-12.1586
-13.3002
-10.9877
-13.877
-15.1222
-8.21997
-8.62591
-10.6065
-11.5167
-11.2794
-10.5616
-8.53382
-10.0926
-8.31267
-8.22055
-9.84317
-8.31152
-8.38858
-8.54962
-8.58107
-8.92994
-8.52077
-8.35136
-9.53921
-8.76865
29.7308
29.6206
29.8806
29.8973
29.7648
29.6156
29.5345
29.9846
29.9863
29.6025
29.6128
20.4431
21.0995
23.5463
23.1217
20.5057
22.0713
22.1037
21.5818
21.934
23.6085
23.3944
23.9359
24.4713
23.2315
22.6764
21.4885
23.8901
22.895
12.0237
11.9913
11.4156
12.2898
11.8911
13.4056
13.0902
12.9837
12.9764
6.14309
5.68945
6.24705
5.79118
5.23208
5.73522
5.75849
4.8186
-8.90772
-8.95083
-8.34993
-8.54818
-8.93732
-8.59176
-8.29841
-7.80624
-6.26889
-6.32325
-7.86348
-7.587
-7.1236
-7.82197
-6.70575
14.6031
16.1895
16.4277
15.7702
16.1869
12.4966
13.8697
15.4173
14.4404
15.386
12.7233
11.4263
12.0071
-11.2322
-11.7077
-11.5765
-11.7795
-11.5553
-11.6908
-10.9992
-11.6751
-11.5417
-11.779
-11.762
-11.5809
-11.5023
-11.6488
-10.6234
-9.34356
-11.8394
-9.16489
-9.5897
-11.1049
8.84201
9.5913
8.19126
9.06621
7.21681
8.00871
10.4967
10.1649
9.28406
6.45962
6.40686
-9.16548
-9.01027
-9.40644
-9.35971
-9.31837
-9.24706
-9.07828
-8.91925
-8.51353
-9.37264
-9.12621
-8.89875
-9.25767
-8.84439
3.80357
2.90441
3.28431
1.60731
2.156
2.83055
2.62886
3.92014
3.5114
2.64373
1.9952
1.38904
3.60021
1.98822
-8.44729
-8.50964
-8.20707
-8.17857
-8.48396
-8.40891
-8.53826
-8.47652
-8.64457
-8.16282
-8.39914
-7.91432
-8.55794
-8.60281
-8.35144
-8.33675
-8.48248
-10.6278
-10.4499
-10.469
-10.3925
-11.7114
-10.303
-10.1953
-9.56535
-10.3469
-10.8705
-9.81014
-10.5784
-9.41556
-9.49778
-9.34984
-9.40276
-9.28206
-9.28428
-9.54412
-9.34454
-9.21988
-9.41136
-9.30633
-9.08326
-9.2735
-6.21421
-6.06807
-6.2757
-5.87255
-5.91024
-5.75831
-5.61357
-5.55431
-5.57295
-5.89573
-6.21618
-6.0765
-5.47814
-5.82811
-5.80607
-0.431949
-0.22695
-0.217269
-0.471388
-0.187504
-0.212603
-0.616312
-0.806306
-0.101313
0.0791439
0.836506
0.30266
0.387361
0.850325
1.8628
0.678102
0.420474
1.09818
0.333662
0.535879
-0.0299097
0.270841
-5.54185
-6.22159
-4.17803
-4.44696
-4.57056
-5.23035
-5.98675
-5.58141
-6.10628
-5.79923
-5.68302
-7.88046
-7.97919
-8.13008
-8.08452
-8.02297
-7.81217
-7.84084
-8.18666
-8.37564
-8.25639
-8.47257
-7.6751
-7.97028
-8.02855
-8.23304
-8.01862
-8.09743
-13.0075
-11.8214
-11.2824
-13.2239
-15.9168
-15.3651
-15.1561
-14.8817
-14.527
-13.6568
-15.2306
-3.62679
-4.09869
-4.63193
-4.50547
-4.18968
-4.27738
-3.74165
-4.62083
-4.53591
-4.14596
-4.07702
-0.22833
-0.126183
-0.319668
-0.416657
-0.114396
-0.11666
-0.4049
-0.156775
-0.523514
-0.583045
-0.621026
-0.231727
-0.42095
-0.912815
-0.90745
-6.11206
-4.38132
-7.49631
-5.83594
-6.20843
-8.49504
-8.87357
-8.44586
-8.7542
-8.87031
-8.47391
-9.24122
47.7385
52.5169
41.1387
43.8025
46.5602
48.561
48.3125
51.1398
43.5909
48.0299
46.3812
47.3556
43.3148
47.7946
42.1933
43.5752
45.4974
40.6021
32.4606
32.0106
32.7124
33.4057
34.3236
35.2537
32.7048
33.3584
35.7529
39.1629
35.9329
36.2081
37.9483
23.6279
20.8649
18.4293
20.0832
24.5081
21.2115
19.7884
21.2475
20.8827
18.9755
26.2135
26.2157
19.5112
21.0479
18.445
24.5516
26.6939
26.8263
22.9061
22.8429
23.4806
24.7423
-10.2394
-10.6786
-10.8766
-10.8853
-10.9796
-10.4067
-10.4691
-10.597
-10.7472
-10.368
-10.7601
-10.3791
-10.4975
-10.4785
-10.5666
-10.5405
-33.7909
-37.5827
-21.082
-28.5441
-19.7558
-27.2331
-25.0753
-21.9984
-19.5758
-25.3791
-41.8187
-36.8217
-24.1692
-33.0172
-20.2163
-21.8727
0.350316
0.193371
0.356252
1.19692
1.57895
2.17748
0.00377186
-0.331424
1.32731
1.30288
2.1842
1.83928
1.56188
1.48081
1.32218
0.670383
-0.0666307
0.751253
31.6396
35.8581
34.4512
30.8895
32.2266
35.0218
38.4854
37.5509
32.6036
38.5353
40.2687
38.4731
34.6233
31.3837
32.182
33.1015
24.7526
24.1173
24.6227
24.4014
23.5847
25.3233
25.9054
25.3042
24.6666
25.6287
25.0673
24.2567
25.1001
23.5348
24.2072
25.7266
26.206
10.7294
10.5715
10.2639
10.614
10.5934
10.6633
10.8282
10.864
10.8589
10.7333
10.3792
10.4416
10.9162
10.6105
10.7337
10.013
10.0488
-6.37165
-7.3159
-9.00801
-8.06654
-6.99322
-7.19143
-6.63593
-6.69713
-7.56392
-7.22376
-8.73715
-8.99992
-7.87319
-6.77434
-8.8087
-7.65938
-7.71362
-8.48961
-5.18501
-5.32531
-5.02828
-5.06382
-4.58443
-4.67246
-4.85335
-4.82761
-4.27502
-4.49314
-4.69558
-4.28259
-4.12793
-4.62473
-7.80216
-7.18247
-8.08941
-8.82216
-8.95102
-8.41541
-8.19029
-7.96903
-7.81368
-9.08399
-8.93871
-8.89021
-8.20773
-7.58678
-7.95982
-8.78716
-8.80273
-9.04613
19.0564
14.807
15.6344
22.5135
18.8342
12.9281
15.7856
16.1541
12.5963
20.9878
16.0149
13.1785
-8.99261
-8.73516
-8.52977
-8.31775
-8.61737
-8.64529
-7.12862
-7.53261
-8.7704
-8.79292
-8.69078
-7.79488
-7.67544
-8.45747
-8.58854
-8.44145
-5.81087
-6.40091
-5.30008
-5.80419
-7.19679
-7.18364
-7.20727
-5.90214
-5.69919
-5.54869
-5.50286
-6.55596
-7.29455
-5.94702
-5.49423
-6.42727
2.97727
2.21649
1.55284
4.77526
5.67363
3.23616
3.93304
0.696516
2.28807
2.98028
4.58163
3.48842
4.54021
5.35456
5.09333
2.00186
2.10863
3.39382
1.49687
-3.76287
-2.85128
-3.54218
-5.3616
-4.44299
-3.29562
-5.13821
-4.70366
-3.67344
-4.02495
-3.83562
-5.05103
-3.832
-3.50877
-1.93865
-1.6325
-1.86708
-2.44578
-1.98295
-2.35705
-2.12409
-1.94837
-2.5019
-1.86854
-2.26612
-2.20696
-2.8041
-1.80439
-1.89546
-1.85663
-1.64076
-2.31119
-5.55037
-6.16942
-5.25332
-3.90283
-4.35939
-8.04526
-5.50589
-5.20953
-5.19693
-6.30526
-7.76134
-10.6348
-10.8527
-11.402
-10.8128
-11.5861
-12.1823
-11.4197
-12.519
-9.74119
-9.6839
-12.3277
-12.8497
-12.6049
-11.9273
-11.3455
-12.677
-11.6797
-11.6784
-12.0606
-11.8882
-11.3615
-10.8361
-10.9287
-10.69
-10.885
-10.5732
-10.7257
-10.761
-10.6844
-10.4983
-10.5207
-10.7327
-10.5282
-10.6764
-10.5521
-10.6689
-10.6054
-10.6308
-7.67962
-8.19417
-9.79633
-9.84282
-8.57301
-9.14406
-9.76392
-9.54229
-8.71047
-9.64705
-8.70267
-4.61981
-4.98483
-3.39253
-3.20926
-4.40176
-3.17086
-3.55899
-2.9477
-4.11815
-3.83053
-3.7571
-3.33008
-3.92939
-3.81477
-3.57797
-3.46677
-3.85546
-3.75458
-3.13023
-3.69754
-3.45707
-3.85455
-3.83688
-3.37402
-3.37751
-3.53486
-3.07412
-3.45636
-3.24084
-3.011
-3.32379
-2.93655
-3.252
-3.42718
-3.03551
-7.1764
-7.39374
-7.26378
-7.21488
-6.85303
-6.38956
-7.26591
-6.09576
-6.92237
-5.74195
-6.41908
-6.81801
-7.03433
-6.54246
-6.46233
-7.80527
-6.85888
-6.19648
-5.97294
-5.92439
-7.0953
-7.19211
-7.47909
-7.50249
-6.75464
-6.80252
-7.87602
-7.50197
-7.23423
-6.56386
-6.76433
-6.71172
-6.4813
-6.83371
-6.96764
-7.30493
-6.33068
-6.49227
-6.9158
-7.32212
-6.38086
-6.61347
-7.87051
-8.80045
-7.18584
-7.84379
-7.67479
-9.11165
-7.10279
-6.97751
-6.98243
-7.77724
-8.59877
-8.04351
-8.33522
-7.21349
-7.04212
-7.93222
-7.53906
-6.63575
-6.22509
-7.60109
-6.86981
-7.72261
-8.74231
-8.12675
-7.74546
-7.26626
-7.16862
-8.15799
-8.33732
-8.95729
-7.67565
19.9162
20.5296
21.4849
20.3572
21.1896
19.9948
21.056
19.8313
20.3796
21.4147
-10.0859
-9.95665
-9.67743
-9.73436
-10.2782
-10.1746
-9.77294
-9.88517
-10.2506
-9.61745
-9.96829
-9.73959
-9.72057
-10.199
-9.7624
-9.99457
-10.1405
-11.0936
-10.4957
-11.4187
-11.1847
-10.863
-11.5922
-10.3835
-11.1839
-10.3294
-10.1397
-11.147
-11.4394
-10.2051
-11.2158
-11.3813
-10.8895
-10.5338
-11.5642
-10.8345
-10.8705
10.1524
10.5624
11.2697
10.6611
10.3362
11.5006
8.03058
9.578
9.80613
9.50288
8.80941
10.9381
10.3642
10.9259
10.0355
9.61554
-15.3758
-16.78
-15.8975
-15.1845
-15.2937
-13.5934
-14.1869
-15.1985
-15.3932
-16.0636
-12.2581
-13.4388
-14.9477
-11.9503
-12.9386
-10.9864
-10.6495
-10.7489
-11.7798
-11.8053
-12.4903
-10.8065
-10.2352
-10.0635
-11.1283
10.0127
8.96824
8.6207
8.73018
8.70247
7.24436
6.9242
6.3476
6.43222
6.9708
7.06852
6.16193
7.83309
6.98769
8.67967
8.79213
6.88361
7.98275
7.56151
-9.48433
-9.40928
-10.1587
-9.44168
-10.9673
-9.65029
-9.17234
-9.72856
-9.98776
-9.49414
-9.4441
-10.0793
-10.3852
-10.8394
-10.2389
-9.76652
-9.55756
-10.4455
-10.2314
-8.74902
-9.67728
-9.23589
-9.15028
-9.03706
-9.46278
-8.81354
-8.56597
-9.78891
-9.85504
-10.1553
-9.51046
-9.90458
-9.87433
-10.152
-10.0568
18.9414
19.502
18.7593
18.5816
19.7563
20.6888
20.5856
19.5934
19.5482
20.3955
20.6009
19.6441
20.6133
21.1377
21.8498
21.2574
-13.489
-15.5181
-12.2205
-12.3641
-15.7075
-18.2753
-9.26563
-10.2416
-12.1609
-14.473
-11.8834
-12.6728
-14.2115
-18.0095
-16.3901
-10.6962
-14.7596
-12.2613
-15.0004
-17.3881
56.2941
50.3145
46.0346
45.7042
54.7722
56.0523
49.5506
54.3629
48.548
50.5533
48.1323
48.6222
45.4139
45.2789
51.0042
18.9252
17.5929
22.2439
23.8555
21.7039
18.6901
24.0971
20.6521
23.075
26.3524
25.2465
26.4901
28.269
26.0399
-16.0999
-16.8385
-16.3931
-17.1473
-15.2284
-15.495
-13.8603
-12.7129
-15.0831
-15.0262
-13.1945
-12.7224
-15.5219
-13.7819
-13.4589
-14.0859
-6.47891
-6.17812
-6.27041
-6.42307
-6.14768
-6.48069
-6.14643
-6.50609
-6.67637
-5.99549
-6.02064
-6.00853
-6.59408
-6.41968
-6.05711
-6.26827
-6.19963
-6.55973
-6.34614
-10.979
-10.842
-10.5019
-11.4424
-11.5346
-11.264
-10.5707
-11.4755
-11.3191
-9.86212
-10.4946
-10.3998
-10.6796
-10.394
-11.6097
-11.2899
-10.3493
-10.7793
-10.5144
-10.6223
-10.3236
-10.3872
-10.8156
-10.2486
-10.4015
28.2892
27.4347
27.4876
27.9615
28.1411
27.7234
27.4976
27.5436
28.2619
28.0446
28.1136
27.8488
27.9651
27.7321
28.0652
28.1251
28.1267
27.9118
27.5528
28.2125
-8.27948
-9.08566
-8.22198
-8.71058
-8.19623
-7.89326
-8.04437
-8.81229
-7.82091
-8.11867
-8.31887
-8.50821
-5.50862
-5.58901
-5.13979
-4.98775
-4.78069
-5.56399
-5.55537
-5.69605
-5.43007
-4.97722
-4.94223
-5.25125
-5.31849
-4.92775
-5.09039
-5.05386
-5.22731
-5.08752
-3.36644
-3.16747
-3.41975
-3.156
-3.31605
-3.67982
-3.76415
-3.89603
-3.96996
-3.21023
-3.68035
-3.32671
-4.01129
-3.83608
-3.51552
-3.3499
-4.01004
-3.6542
-3.27484
-2.63978
-2.77904
-2.96327
-2.09829
-2.68698
-2.4031
-2.19466
-3.27139
-2.69266
-3.32312
-3.31142
-2.41334
-2.34244
-2.58016
-3.41869
-3.42568
-6.77159
-6.46662
-6.97213
-6.62688
-5.89629
-5.75274
-5.88851
-7.03867
-7.29698
-10.4212
-10.2143
-10.2157
-10.4065
-10.5564
-10.5538
-10.3562
-10.6311
-10.3076
-10.2551
-10.5227
-10.3194
-5.26043
-5.08608
-5.29056
-5.28151
-5.20898
-5.41173
-5.34804
-5.54391
-5.58184
-5.34896
-5.84294
-5.74768
-5.72098
-5.82408
-5.63603
-5.8025
28.5342
28.7228
28.484
28.2155
27.8396
27.8724
27.4335
27.3765
27.6642
28.2183
-7.92763
-7.70763
-7.94955
-7.70754
-8.02881
-7.89969
-8.16794
-8.12633
-8.27928
-8.27546
-8.04771
-7.87865
-8.08802
-8.4192
-8.361
-8.14085
-8.10623
-8.04968
-6.26045
-6.57074
-6.17076
-6.27628
-6.22244
-6.18604
-6.42323
-6.20333
-6.37313
-6.82712
-6.57554
-6.62229
-6.37929
-6.57393
-6.13303
-6.24901
-6.45425
-6.23862
7.20976
6.58071
6.0092
6.9807
5.13975
4.6025
7.59648
7.07378
5.76748
7.27517
6.28953
5.37544
6.11437
6.14768
28.6318
28.5322
28.4017
28.2314
28.6858
28.266
28.0838
28.1185
28.4314
28.2428
28.4292
28.555
28.1139
28.0827
27.9708
28.0118
28.3977
28.1904
28.3442
28.1063
41.293
39.8442
33.2167
36.3659
25.6923
30.0706
15.485
31.2119
31.4217
28.7882
34.4578
24.4877
36.0513
41.0821
37.0158
44.4074
26.3137
37.4623
32.9822
-12.6034
-13.571
-9.30191
-8.23713
-13.2447
-16.3287
-16.2795
-19.0786
-9.05671
-9.22802
-21.548
-18.0473
-11.6288
-15.1264
-17.8754
-12.2605
-12.6558
-18.9386
-15.1593
-15.814
-1.66475
-2.30847
-2.15826
-2.36963
-2.72295
-1.96159
-3.32437
-2.55022
-2.64168
-2.56829
-2.37628
-2.33046
-3.08756
-2.22063
-3.34022
-3.16806
-3.08479
-3.00912
-2.32877
-10.1485
-10.7453
-12.1268
-12.4303
-12.6432
-12.17
-10.5859
-10.9961
-11.8903
-9.33835
-11.0433
-11.563
-10.843
-11.5368
-11.5693
-11.5372
30.5624
30.5134
30.3796
30.4561
30.7264
30.743
30.621
30.6482
30.4591
30.3258
30.8393
30.6154
30.7811
30.7774
30.4061
30.3256
30.4909
30.6593
30.7905
30.3903
-1.72764
-1.8752
-1.3104
-0.892524
-3.82787
-3.91508
-4.34409
-5.20058
-3.10592
-1.71178
-1.33774
-3.83154
-4.178
-4.70501
-5.43251
-5.31769
-2.99858
-4.81623
-4.56869
-3.50966
30.6296
30.5041
30.5866
30.6294
30.6188
30.6441
30.5681
30.6959
30.7616
30.7736
30.8425
30.5449
30.7103
30.6889
30.7945
30.7781
30.659
-5.75421
-5.71361
-5.8232
-6.08117
-6.02657
-5.75022
-5.51186
-5.84819
-5.95157
-6.244
-5.55079
-5.12834
28.6308
28.4502
29.0032
29.0076
28.7589
28.7085
28.3579
28.5726
28.8068
28.966
29.0069
28.6364
28.46
28.5793
28.3823
28.5805
28.3745
28.6448
28.7108
28.3691
28.6147
22.0576
21.6176
21.7129
22.1331
22.1831
21.3466
21.7417
23.3978
23.5747
23.3638
22.6551
22.3028
21.9232
21.8506
21.8951
22.5772
22.4768
22.4679
7.77719
8.03231
8.11779
7.70194
7.96116
8.66248
8.31005
8.34956
8.09461
9.24552
9.07855
9.32353
9.15507
8.22888
7.9601
48.9734
43.9047
38.1047
39.5413
45.8793
43.8849
55.2715
40.7252
47.617
42.528
54.8892
54.6449
50.3759
43.7044
-3.88034
-3.56823
-4.07308
-4.52402
-4.51531
-4.65974
-3.90727
-4.11252
-4.11914
-3.94049
-4.50641
-4.26518
-3.95701
-3.49664
-3.60822
-4.01579
24.5257
22.483
24.1026
22.3146
21.9898
22.3697
22.7026
22.7585
23.5996
24.0082
26.4383
25.9309
24.9707
27.2425
27.8296
25.2653
26.303
29.8474
29.8026
29.3957
29.4985
29.5985
29.6573
29.8772
29.9164
29.3586
29.4791
29.8255
29.8498
29.8073
29.6802
29.6377
29.8045
29.6053
-16.9862
-14.5449
-14.3816
-18.2183
-13.8434
-19.1801
-25.3116
-13.6465
-16.5769
-17.1463
-16.1258
-16.9959
-18.3769
-14.4765
-16.8268
-16.7891
-13.657
-14.8966
16.6949
16.3565
17.9901
17.6662
16.9345
15.6393
16.03
17.6001
18.1057
17.7022
17.4449
17.7618
16.052
15.8023
15.164
17.0023
15.8492
16.4665
15.4396
16.9573
16.2557
16.0173
-6.64914
-6.87849
-6.70538
-6.57564
-5.86127
-6.00669
-4.63476
-4.96826
-6.1385
-7.01559
-6.60454
-6.3577
-5.18561
-5.47121
-5.13897
-5.07394
-4.66141
-5.21363
-4.53295
-4.60538
-5.05773
-4.89693
-4.65903
-4.96943
-5.26093
-5.04376
-5.14435
-4.3928
-4.42744
-4.32886
-4.50093
-4.47717
-5.18321
-5.13179
-5.09351
-4.80039
-4.4118
-4.88426
-5.9508
-5.84472
-5.90828
-6.05345
-6.28087
-6.34057
-5.83828
-6.21617
-5.79582
-5.98527
-5.70758
-6.20723
-5.389
-5.71014
-5.50345
-6.27721
-5.88817
-5.52449
-6.25485
-7.99578
-8.13497
-7.60697
-9.28242
-7.12705
-5.65614
-9.0484
-9.10737
-3.09794
-4.02328
-1.98606
-6.04487
-3.61669
-6.23425
-5.59938
-7.73858
-7.22322
-5.00577
-4.751
-1.02173
-3.21778
-2.15168
5.06554
3.47931
2.80598
3.2921
3.86004
5.4622
5.33758
4.34224
3.62046
2.81231
3.18389
3.29843
2.96641
4.00544
3.86383
4.94727
3.74308
3.0073
3.64316
-8.89733
-8.45959
-8.65294
-8.70792
-8.83933
-8.87515
-9.057
-9.3617
-8.86643
-9.4447
-8.95152
-8.76879
-8.81329
-8.74333
-8.80346
-8.75888
-8.80823
-5.61774
-5.77653
-7.1144
-6.67028
-6.43515
-6.70072
-6.87529
-6.58798
-6.0255
-6.75608
-6.23876
-6.78761
-6.45722
-6.55282
-3.56401
-4.17915
-4.49141
-4.6742
-4.01055
-4.42941
-3.47813
-4.55583
-4.73641
-5.07756
-5.09663
-3.44481
-4.56067
-4.7338
-4.60319
-3.77648
-4.70123
-0.204719
-0.458179
-0.275036
-0.0590995
-0.182902
-0.303123
-0.329831
-0.344816
-0.121239
-0.276693
-0.537525
-0.542913
-0.811269
-0.687884
-0.207415
-0.376895
-0.793638
-0.725402
-0.737994
-0.69552
-0.345632
-0.129994
-0.723427
-0.105996
-0.315068
-0.321005
-0.476877
-0.646319
-0.363855
-0.326392
-0.330358
-0.0319247
-0.104146
-0.369098
-0.699196
-0.296357
-0.350433
-0.651916
-0.181664
-0.335664
-14.203
-15.0681
-17.5729
-18.6595
-17.9485
-18.8758
-15.3534
-16.2527
-16.6901
-13.0196
-14.7027
-15.4397
-17.3043
-16.6034
-16.6333
-15.4448
-15.1971
-1.06923
-1.06747
-1.46079
-0.165304
-0.807913
-1.68633
-1.95109
-0.10015
-0.385947
-1.34328
-9.00876
-8.94287
-9.0262
-9.2285
-8.62798
-8.6138
-8.95505
-9.18034
-9.20699
-9.14309
-8.86562
-8.63239
-8.65262
-8.79865
-8.63902
-8.95007
-8.79909
-9.00626
-8.14494
-8.1224
-8.22541
-7.87545
-8.28128
-7.97167
-8.03306
-7.93394
-7.66345
-7.77109
-8.33222
-8.41342
-8.11931
-0.682927
-0.419803
-0.847583
-0.529474
-0.958958
-1.31392
-0.991527
-0.33664
-0.261504
-0.658957
-1.11112
-1.05045
-0.265263
-0.26589
-8.55464
-8.54606
-8.76994
-8.70507
-8.53611
-8.62341
-8.74453
-8.60944
-8.62918
-8.69367
-8.65927
-8.81237
-8.69276
-8.57043
-8.97281
-19.9009
-19.1082
-18.6332
-18.9479
-18.6368
-17.8977
-21.4915
-20.401
-19.7707
-20.4073
-20.7071
-20.4425
-19.1768
-18.458
-18.9572
-19.9188
-19.8496
-20.1758
29.6138
29.6094
29.8613
29.2146
29.3274
29.2875
29.3957
29.2181
29.5345
29.513
-9.18006
-9.2198
-9.20539
-9.42863
-9.15193
-9.43673
-9.13103
-9.2139
-9.01872
-9.10397
-9.11537
-9.34891
-9.41013
-9.2285
-9.44918
-9.11459
-9.22111
-9.25258
-9.0419
-9.1979
-9.2488
-9.23452
-5.30092
-5.28382
-5.66946
-5.83113
-4.95347
-4.78313
-5.57959
-5.41865
-5.38679
-5.06283
-4.77359
-4.91226
-5.52326
-5.2109
-5.0188
-5.09334
-5.33282
-4.91676
31.254
32.2255
33.4798
32.1745
30.7738
33.2385
31.4067
32.3509
28.6748
30.565
32.1275
29.3156
29.6343
28.3821
27.1177
30.2333
28.0559
26.9154
27.9839
31.6398
29.4115
28.5176
25.87
31.185
31.9605
33.3914
32.8372
37.1287
36.3246
33.7142
36.2023
29.5584
28.6734
37.0189
37.9376
34.7496
37.2419
30.4813
30.5971
30.6508
30.4604
30.571
30.4614
30.6408
30.5836
30.4285
30.565
30.3714
30.4065
30.6345
30.5685
30.5737
30.6372
30.0992
25.8708
25.4348
27.756
28.8896
30.7636
28.7713
28.8705
25.1399
24.4459
29.0856
26.9726
28.5093
25.7066
27.7801
25.5783
25.3048
26.524
27.0966
26.0407
26.7258
27.7997
27.6269
26.9378
26.1898
27.841
28.2239
27.6889
22.7434
22.3416
24.5338
25.9561
14.1121
13.1347
23.123
23.0274
13.801
16.0337
18.5334
18.5859
20.1485
17.6399
15.3249
13.1776
28.4949
27.6602
28.0182
28.5347
27.7349
29.0571
28.6533
27.8544
27.8685
30.698
30.2699
29.9434
29.3934
28.2845
29.4189
28.8542
29.9014
29.2885
28.6424
30.1865
8.57489
10.3318
5.09498
2.19059
3.43208
6.19422
13.4349
5.24111
9.15875
9.11678
2.82266
7.86914
8.57363
5.45309
8.45778
15.0591
15.1571
13.6048
11.6169
9.96296
18.9376
16.0817
16.1084
13.2776
17.2688
17.3794
17.3414
14.6702
13.2398
14.3551
14.4994
15.2209
15.5583
29.7005
29.7517
29.5483
29.4439
30.1295
30.1048
29.6483
29.4883
30.2874
30.2908
29.7107
30.003
30.2715
30.2359
30.1256
-11.105
-10.7556
-11.2515
-11.2644
-11.779
-10.7555
-10.876
-12.5549
-12.172
32.2585
31.3858
30.3839
30.3383
31.0642
30.4687
32.6903
30.1394
33.9149
32.4823
30.2756
32.1299
32.759
33.1011
33.5794
29.3802
29.6861
31.4588
33.6061
32.2783
29.8615
30.734
4.17227
4.8726
4.2892
2.27012
3.31269
4.28731
1.21819
2.50068
2.79674
0.720691
1.89436
-0.218662
0.722619
-0.370064
-0.813559
-0.0946053
1.12954
2.74257
-1.1268
1.60828
28.5516
26.8929
31.5715
27.1331
28.994
35.5429
32.835
28.9832
32.7599
28.188
30.608
36.4584
34.2824
35.0365
38.4898
31.8271
31.2026
29.4401
33.9289
27.8684
31.0629
28.8252
32.601
37.0788
37.9846
36.0245
-8.2834
-9.1792
-8.71018
-8.26193
-8.66612
-9.0661
-8.86753
-8.56295
-9.49713
-8.54188
-8.67987
-8.93175
-8.41893
-8.29459
-8.22615
-8.56672
-8.39633
-8.9255
-8.71067
-8.23269
-8.30503
-8.36156
-8.34205
-8.56588
-8.33493
-8.56756
-6.9893
-6.76377
-7.45531
-7.94786
-6.91372
-7.12432
-6.87647
-6.10367
-7.88969
-5.39843
-7.73885
-6.58282
-6.1308
-6.68838
-7.51477
-7.54458
-7.08662
-6.82064
10.8261
10.3507
6.98254
8.86723
7.57525
5.67549
2.39977
6.89736
7.17929
4.83848
0.0741618
3.68305
5.12549
25.8197
26.6146
26.9563
25.5946
27.2658
27.0382
27.4369
26.579
26.7041
25.7111
25.8746
27.7716
27.15
-11.9243
-11.7527
-12.7202
-12.1261
-12.1861
-12.8071
-14.1112
-13.6245
-14.9957
-12.8379
-13.0105
-12.8218
-14.0019
-10.6415
-9.28457
-9.14289
-9.56411
-9.71301
-10.2537
-10.1707
-10.3795
-9.18252
-9.21767
-9.78073
-9.19486
-8.84799
-9.23986
-9.26016
-8.27828
-8.12414
-8.25006
-8.14619
-8.18124
-8.17075
-8.07904
-8.15855
-8.00384
-8.27311
-8.13856
-8.36855
-8.13073
-8.13936
-7.97252
-7.95944
-9.47709
-9.13871
-9.11644
-8.97918
-9.0611
-8.97433
-8.96456
-9.30138
-9.02118
-8.95499
-9.16874
-9.15582
-9.11738
-9.6588
-6.96537
-8.49314
-8.71741
-6.63322
-7.87675
-8.17575
-8.9176
-6.66424
-6.41438
-7.12917
-7.35426
23.3212
24.8847
23.9809
25.1283
24.3757
25.2583
24.3709
23.6219
24.7988
23.8936
25.2317
23.0676
24.6158
32.9589
35.8571
38.2492
46.5501
44.3974
32.892
50.0878
49.2526
36.3545
41.9646
34.5004
36.649
45.0944
49.0388
51.7901
39.9822
41.8257
38.6567
48.3387
46.3162
44.4744
41.511
33.9533
34.0284
33.8871
32.6375
32.3971
31.1059
31.5473
31.9413
31.3142
30.267
30.3751
20.3407
19.6679
19.4135
18.978
21.448
20.9428
19.2883
20.679
19.8866
18.987
18.1863
18.4308
20.1338
21.5674
21.7535
19.0137
18.4542
20.6959
17.9057
31.9846
32.2715
32.1593
32.1558
32.8978
32.727
32.5137
32.3474
32.3434
32.7476
33.5014
33.2119
33.644
-10.2921
-5.99798
-3.3426
-7.26281
-5.37742
-1.03308
-1.17135
-0.89727
0.149322
-4.17994
-1.84887
-10.2658
-13.6052
-4.42754
-1.21024
-7.80042
-5.1581
-13.764
-8.56078
-14.4205
-7.37228
-8.24907
-8.06203
-8.32231
-8.32653
-7.97412
-8.166
-8.35501
-8.62123
-8.33412
-8.29185
-8.62894
-8.44184
-8.21423
-8.31348
-8.26448
-8.25469
-7.95215
-8.36114
-8.85369
-9.79509
-8.41767
-7.83367
-8.14513
-9.25369
-8.61822
-8.7778
-7.71889
-8.61887
-9.74534
-11.1591
-9.01219
-8.65539
-7.40081
-5.93857
-7.87336
-7.10641
-6.23833
-8.0081
-8.88711
-7.00691
-5.90123
-6.98175
-5.85822
-7.24632
-6.25251
-3.39663
-3.90921
-4.17319
-4.03252
-4.42152
-11.7862
-13.9543
-12.5192
-13.8966
-18.2561
-11.7746
-15.4788
-18.7116
-18.121
-22.2281
-23.2659
-20.0114
-19.5855
-20.1092
-15.7464
-2.52606
-3.05482
-3.18142
-4.2166
-3.5447
-3.30478
-3.64986
-3.1085
-3.55392
-2.26911
-2.09238
-3.49976
-3.48319
-2.69261
-1.42276
-2.38516
-3.27069
-2.55936
14.9457
12.8282
8.31579
15.6817
1.62239
-9.20529
15.0993
4.85672
14.2349
8.06708
9.12352
-22.3404
-15.4504
-34.4864
2.34506
1.83416
-0.876
-12.0399
-4.12463
1.85534
-19.275
-18.8352
-18.9241
-17.3994
-17.7767
-16.6388
-16.5227
-16.32
-17.7276
-17.9246
-15.9147
-16.5789
-17.0938
-16.184
-12.0078
-10.3841
-11.169
-12.8041
-8.63114
-9.35085
-10.6885
-12.8164
-10.484
-10.1528
-12.8065
-11.6115
-7.91033
-8.6385
-7.81524
-8.43748
-8.47071
-8.7826
-7.48922
-8.57774
-7.75914
-10.4603
-13.7099
-9.07913
-14.6606
-12.7194
-14.6621
-14.0222
-4.87541
-5.39857
-5.14211
-7.30123
-9.22098
-9.56549
-11.3344
-11.4877
-6.33113
-9.04034
-6.49348
-6.64676
-3.63946
-5.35429
-5.51161
-5.04434
-1.90966
-2.04308
-3.1002
-0.0811627
-0.0961592
-3.42669
-5.60971
-2.65856
-1.55451
-0.145275
0.38946
-4.0411
-1.5591
-1.89819
-3.39908
-2.13235
12.2519
12.8628
9.96893
10.3411
12.9518
11.0732
10.6387
11.2494
11.7917
11.2081
10.1779
10.78
10.8774
9.96508
12.794
-11.8951
-8.5531
-9.76224
-10.6811
-12.0826
-11.0111
-8.78604
-11.6212
-6.97693
-6.63784
-7.18859
-7.18098
-7.26505
-7.56724
-7.52467
-6.91398
-7.50071
-7.58259
-7.13106
-7.77763
-8.64197
-8.23054
-7.01906
-7.09886
-8.30189
-8.1548
-8.30757
-7.4156
-8.05456
-6.9531
-7.44964
-6.55401
-7.84191
-7.45537
-7.98698
-7.25662
-6.99373
-7.61578
-9.74039
-9.48463
-10.0007
-9.75984
-9.5856
-10.0097
-10.6031
-11.9297
-11.269
-10.6131
-10.2519
-10.9664
-10.895
-11.7163
-11.2137
-10.4217
-10.8689
-11.1694
-1.91923
-1.67078
-1.67456
-1.93205
-2.02769
-2.1437
-1.69544
-1.71275
-2.08003
-2.16402
-1.93484
-2.31723
-2.74908
-2.8211
-1.8082
-2.35034
-2.17816
-1.94115
-2.7825
-2.63899
-2.17856
-1.98994
32.8351
32.4869
32.9623
32.5885
32.0227
32.681
33.1972
32.106
32.2346
32.1242
31.5429
31.2525
31.4692
32.4542
31.9611
31.7292
-15.7063
-14.9537
-14.308
-15.764
-16.441
-15.2775
-13.1624
-13.5876
-13.2805
-15.8467
-14.1713
-13.5122
-14.7327
-13.3297
-16.3744
-14.9174
-15.8191
-17.3055
-5.84836
-6.02227
-5.42408
-5.36255
-5.70035
-5.9202
-5.97656
-5.21906
-5.2284
-4.91398
-6.09067
-6.23552
-5.70376
-6.08992
-5.41708
-5.99422
8.00891
8.73782
10.3573
8.79146
7.50621
9.6036
8.01156
10.0349
10.5366
8.68496
9.26404
9.03227
8.78572
10.3259
8.28006
6.77527
8.15864
6.66616
7.08624
8.07672
5.46544
3.67961
0.85139
0.760921
-0.739485
-0.529652
3.34296
-1.71243
8.76023
7.68243
-3.43219
2.37382
7.27211
5.7582
-0.410234
3.21077
-10.2641
-10.0477
-10.1763
-10.0056
-9.66782
-10.1109
-9.98567
-9.80737
-9.78139
-8.93548
-8.93125
-9.26317
-4.08995
-3.97029
-4.19045
-3.6443
-3.86562
-4.08283
-4.19808
-4.26557
-3.51478
-3.69487
-3.84958
-3.68785
-4.30666
-3.83584
-3.49418
-3.63144
-3.98944
-9.47909
-9.67536
-9.26216
-9.29368
-9.34564
-9.76408
-9.70139
-9.29994
-9.62645
-9.31095
-9.3253
-9.47505
-9.7894
-10.0449
-9.34497
-9.66578
-10.0941
-9.27046
-6.06145
-7.41206
-6.8263
-6.18365
-7.63387
-7.34629
-5.81973
-6.49276
-7.82408
-5.32003
-5.13151
-5.87361
-5.40393
-6.13889
-5.37659
-5.49822
-5.93584
-6.09784
-7.13283
-6.57513
-7.69844
-7.5946
-4.81619
-4.98578
-6.65609
-6.35306
-5.29157
-5.73807
-7.22996
-7.11312
-5.82868
-5.56874
13.9564
13.6243
8.17285
11.0119
12.8824
13.6972
13.5456
12.2388
9.36087
12.233
9.10092
11.6327
11.499
10.0476
33.1768
32.8163
31.683
31.8839
31.9151
32.259
32.9236
32.6379
31.5999
31.8076
31.699
32.3771
32.1974
32.7446
-1.60284
-1.45867
-1.97822
-1.9471
-1.87315
-2.07678
-1.7244
-1.8981
-1.70185
-2.06538
-2.20596
-2.05496
-1.58454
-1.77282
-2.16435
3.34787
3.67616
6.32813
6.4413
3.0998
4.43766
4.45239
4.84146
6.16051
6.37965
2.38161
2.70251
3.26339
3.86225
4.96391
3.61475
4.50244
-7.48566
-8.14154
-8.59565
-8.72695
-9.12873
-8.78825
-7.3913
-7.32574
-8.88866
-9.51888
-8.82301
-6.79051
-8.10996
-7.29922
-7.77607
-7.26544
-8.03675
-8.74524
-8.06788
-8.0504
-8.80505
-7.53843
-8.383
-7.76778
-7.68641
-8.01622
-8.9301
-9.49394
-8.32606
-8.16735
-8.24336
-9.06919
-8.71408
-8.65351
-8.69459
-9.07764
-8.57552
-7.7915
-7.84605
-7.76108
-7.84792
-7.58027
-7.60652
-7.45208
-7.60467
-7.45871
-7.1585
-7.32238
-7.38312
-7.32614
-7.64418
-7.21894
-7.30835
-9.62583
-9.67117
-9.78886
-9.84445
-9.10691
-9.75362
-8.97782
-9.71784
-9.61536
-9.49578
-9.23641
-9.01483
-8.36238
-8.77864
-8.47491
-9.16444
-9.27832
-9.22385
11.5156
11.6522
10.6718
10.3279
7.61873
5.75205
12.6236
11.89
4.91098
12.833
10.3036
9.02882
6.26118
8.96372
11.3156
11.8997
10.5673
6.71216
7.97884
7.46958
6.72293
6.71508
7.9639
8.62889
7.42953
10.2984
10.1075
10.3042
8.61654
10.0151
9.14109
7.73628
26.8268
26.2058
25.5324
26.5518
27.7605
26.4468
27.9737
28.0155
26.5833
25.8316
24.9189
26.4796
25.3147
29.1258
28.1379
-6.14305
-5.88655
-5.58368
-5.04993
-6.48381
-5.95871
-5.4239
-5.30087
-5.91871
-5.46544
-5.89661
-4.83414
-5.06849
-4.64867
-4.90202
-5.28351
-7.22251
-7.11605
-7.6743
-6.95869
-6.74437
-6.55231
-4.87562
-6.46867
-6.61886
-7.33688
-4.70304
-5.59575
-6.47562
-26.5416
-20.1103
-18.4165
-12.6435
-26.5007
-31.8712
-7.91331
-15.3395
-11.9689
-17.4898
-18.9788
-23.6441
-21.0579
26.9848
25.8724
29.6268
27.1792
28.4471
29.9263
27.9617
25.3582
23.3295
24.4987
27.0519
28.4845
27.496
19.484
21.3223
27.4725
26.9765
21.0544
19.5235
22.0165
7.97811
7.84703
7.65772
6.77123
7.7358
7.11696
6.80939
7.46854
7.77611
7.72302
7.28286
8.06515
7.85407
7.43167
-2.97962
-2.49032
-2.70787
-2.95692
-2.49854
-3.00303
-3.23343
-3.34434
-2.98308
-3.14097
-3.30073
-3.55172
-3.23224
-2.52333
-2.70695
-2.39145
-2.35218
-2.96393
-9.47496
-9.34368
-9.02825
-9.24363
-10.1421
-9.96776
-9.49009
-9.8405
-9.47707
-10.0794
-8.69749
-9.3541
-10.5059
-8.7414
-9.45884
-9.11256
-9.8507
-9.61502
-9.59315
-8.93321
-3.83215
-3.3346
-3.10874
-3.50959
-3.5277
-8.60399
-8.35803
-9.90798
-9.79636
-8.90902
-9.37572
-8.66596
-8.86212
-9.04546
-9.26293
-8.44465
-9.42745
-8.81098
-8.56655
-9.01886
-8.76345
-9.02301
-8.64064
-8.87496
-8.3415
-9.56125
-9.25852
-8.87277
-9.37708
-9.05606
11.4535
11.7855
11.8007
11.5089
10.9536
10.839
11.2522
11.6765
12.2097
12.2116
11.642
30.4292
31.0094
29.4353
29.3961
30.3155
31.5083
31.9994
30.4767
30.4209
32.7565
31.7166
34.2973
30.324
29.6567
31.5684
12.5897
11.8065
8.91385
10.272
9.71057
11.0888
9.44315
8.02224
8.21058
9.49214
11.1167
10.1881
11.5728
8.34622
8.84713
10.2791
6.71097
6.74425
8.76198
6.2842
5.03019
23.3598
24.3869
23.8219
22.79
23.2205
22.589
20.0267
19.0394
17.391
17.9432
18.2712
18.1302
21.1175
21.1315
19.079
19.7033
21.9912
38.1829
40.3365
40.7586
38.2215
37.3367
39.0417
38.2553
38.9668
40.3111
37.5584
41.2372
38.0357
37.0683
43.7037
42.2907
42.1989
38.8562
41.8908
42.8678
39.3009
-1.30713
-0.590885
3.092
1.95046
8.42177
-0.765851
0.719659
5.89
3.96552
6.41814
11.6338
11.0352
5.82957
9.29399
-10.94
-10.8405
-10.7004
-10.5896
-10.8852
-10.983
-10.6916
-10.5874
-10.7615
-10.4606
-10.5822
-10.4884
-10.4797
-10.4079
-9.01805
-8.71525
-8.6312
-8.9777
-8.55293
-8.94944
-8.59397
-9.03853
-8.77884
-8.92605
-8.80081
-0.22326
-0.185414
-0.460938
-0.559202
-0.918964
-0.244011
0.0142023
-0.451348
-0.310693
-0.519245
0.0563917
0.0362925
-0.250966
-0.0246931
-0.832882
-7.12393
-7.2211
-7.22767
-7.35443
-7.20658
-7.42468
-7.58059
-7.2935
-7.47655
-7.99778
-8.03857
-7.86247
-7.86932
-7.46529
-7.26809
-7.30467
-7.45482
-7.32979
-9.0716
-11.8508
-8.92424
-10.2335
-9.04342
-11.9927
-10.7141
-10.0931
-8.2894
-9.43239
-10.6974
-8.23039
-9.94376
-10.5448
-10.1087
-11.0931
-10.0605
-10.2119
-7.47039
-10.2064
-9.76245
38.5678
42.2175
40.7884
42.5961
38.5392
42.7746
43.7269
41.0402
45.1178
46.8208
43.3277
35.2159
36.0636
40.5223
35.8613
2.36205
2.70762
0.720564
1.13632
3.04888
1.23393
3.53026
1.859
1.77607
1.22172
20.8038
20.7584
21.4126
21.4181
19.993
21.2321
21.8123
21.6889
21.7253
21.6504
19.1783
19.7145
19.4565
19.9892
19.6528
-14.2395
-13.3564
-15.7177