/*--------------------------------*- C++ -*----------------------------------*\
  =========                 |
  \\      /  F ield         | OpenFOAM: The Open Source CFD Toolbox
   \\    /   O peration     | Website:  https://openfoam.org
    \\  /    A nd           | Version:  10
     \\/     M anipulation  |
\*---------------------------------------------------------------------------*/
FoamFile
{
    format      ascii;
    class       surfaceScalarField;
    location    "9";
    object      phi;
}
// * * * * * * * * * * * * * * * * * * * * * * * * * * * * * * * * * * * * * //

dimensions      [0 3 -1 0 0 0 0];

internalField   nonuniform List<scalar> 
146459
(
-1.90161
2.63366
-1.26409
0.53203
0.817507
-1.14956
-1.56955
-3.22242
4.6837
1.17238
-1.10177
-1.30314
-2.30724
-0.861206
1.94615
1.22229
-0.504194
-1.80305
1.76828
-2.33479
-0.583056
6.761
3.17238
-8.52399
-1.40939
-2.29503
3.7383
5.31773
-0.224425
-2.6783
0.832313
0.984778
-2.58845
-1.89289
3.19224
1.37838
-25.438
46.9935
-24.1778
2.62233
-27.7441
19.9347
-17.6285
28.0115
10.5394
-16.8101
-21.7408
54.6241
10.163
-36.7756
-13.9001
-22.9931
9.14907
21.1176
-6.65218
-3.92604
52.0751
23.6666
-19.4111
-1.14115
-28.0808
-34.6897
39.7774
-10.5223
12.302
-29.8605
-38.2678
8.33438
41.1297
-9.27884
-19.5488
10.1552
6.20065
24.7738
9.09977
24.2413
-4.47619
-28.8649
-0.181513
23.9773
-14.696
16.7445
6.61424
0.882579
-10.484
10.4424
16.7861
19.7668
-18.8128
5.66027
-11.9149
22.7108
8.97085
29.2285
-17.1779
31.631
-43.6816
14.6491
4.09533
-9.09098
23.2953
-14.3858
-30.7451
16.7963
-11.6317
-4.09455
8.97591
-25.9133
23.7535
16.8089
-10.4038
16.1216
34.4262
4.25543
-14.9281
9.52507
9.67565
-3.52523
-4.0566
0.669404
6.91243
-6.37517
-3.58753
6.43747
7.18593
-6.58961
-4.65293
0.577301
4.3431
2.26553
7.77997
3.40923
-10.6119
-18.0693
-17.4547
20.5893
14.9346
-17.7843
21.7156
-3.86778
-0.0635749
-5.09259
-0.350678
-12.341
-15.5913
-1.31845
-1.15959
-11.6093
-5.47123
10.6188
6.46173
-3.95424
17.1902
8.47965
-15.8624
-2.97517
14.9697
-14.908
-6.04692
-23.8464
4.51715
15.375
-16.8771
-7.32
2.79927
-17.1585
-3.0954
-8.81003
10.0734
-11.0275
-21.5217
-11.2281
-8.40133
-2.29884
18.125
-7.42484
-8.18376
-0.774143
0.55658
-11.6928
21.6427
-12.2487
-8.45359
0.673883
-0.404055
9.34721
-1.06594
1.17103
-9.4523
-5.40665
6.30027
3.13031
8.99824
-8.94538
-3.18317
-5.63338
8.7637
11.04
0.431393
-12.5374
-0.80202
1.53304
8.26722
-0.329181
-11.3406
12.8408
1.28132
-9.79531
-13.9032
1.40837
-12.9511
0.32218
-1.82122
0.549869
0.949173
-0.580237
-0.337971
1.24039
-0.88779
-0.481277
0.788831
-0.0864787
-0.377395
-1.35735
0.396385
-0.820835
0.307331
-1.39204
1.63458
-0.910631
0.330172
2.33025
0.144962
-0.914374
-1.56083
0.0254277
1.65567
0.649145
-1.44912
0.993272
-0.405283
-0.898877
-1.99126
-0.403112
1.00234
-0.959534
-1.40912
0.661444
-0.0645946
-0.999961
-0.65447
-0.0231264
-1.60664
0.670234
-1.00209
-4.16234
10.2795
6.77907
-12.8962
-1.9472
-17.1823
5.56224
13.5672
-16.2852
10.1756
-9.8106
-23.6568
-6.39749
15.9975
-9.60003
-12.2248
13.7278
4.05924
7.84738
-24.0211
6.36313
-10.7749
9.01556
-6.41735
2.46288
-5.06109
-0.616439
5.58722
4.04478
0.137391
-1.26057
-5.29417
7.95812
-1.61445
-6.20628
12.1906
4.96756
-9.20003
6.44628
5.12788
-6.90954
9.37242
0.327539
6.91376
-8.50187
-9.5552
8.26828
13.2401
-8.2725
0.00421848
-6.52853
0.866018
-6.29146
11.954
-8.98118
-4.61247
7.06512
6.03888
-6.99277
9.85027
-8.89638
0.150781
5.8881
-7.48963
-7.3951
15.7507
-0.30284
-9.2618
0.583452
-6.5943
-4.17419
-10.642
7.32656
-10.7459
1.95928
-0.0534462
-8.66397
-2.02852
-7.62773
-1.68752
-4.54298
6.44352
-9.52826
5.49273
-17.0285
10.7516
-0.338132
-0.563188
9.24458
9.98588
-13.1571
-0.994249
4.39065
12.8555
-9.88336
-7.36275
10.6562
0.441028
-6.70658
4.4051
19.1066
6.52679
-12.0199
10.6014
-5.10829
-9.92677
20.8587
6.18755
4.93063
-23.0991
11.9809
4.72783
-10.5602
5.19894
-10.1517
16.8357
7.01376
-15.4662
-8.38329
-5.63808
16.2428
6.23096
12.1854
-3.9059
-13.9175
9.43583
-0.400141
-2.02193
6.78261
18.896
-2.23939
10.8564
-9.0172
11.0454
3.22852
-2.08853
23.9348
-6.10681
-6.51646
-7.77363
-2.08275
16.3728
-12.8728
-9.00063
15.357
0.0293525
-7.80298
-12.8672
0.0236745
-1.15705
-24.4913
16.6478
6.55007
-19.5998
11.8927
-8.04661
12.5139
-20.4409
-10.1209
22.5151
12.5481
-27.8139
-5.17506
2.42727
-3.12917
-18.6483
-2.71386
-12.3816
-3.61472
-5.37571
-24.525
-13.7231
-10.8671
-6.89019
11.693
-0.92622
-3.30882
-7.45798
-5.33596
0.139136
4.99894
0.197893
5.5673
-13.4043
2.50104
-9.41251
8.54034
1.01131
8.97797
-12.8232
-1.47667
4.04454
9.12515
-13.4716
4.70611
7.28885
-0.928429
-2.4423
-10.1009
7.42321
-3.3505
11.1829
-3.13331
6.9941
12.7291
1.30323
10.1645
13.0034
0.101849
-6.20864
8.24217
-2.13538
-8.44049
11.2755
-2.73313
1.32291
-15.972
-15.2071
-1.37262
13.6834
2.89635
11.8868
-25.771
10.5141
16.8201
7.74359
-16.3215
-7.54486
8.51467
15.8502
0.198727
1.19198
9.18196
0.901525
11.6218
3.25362
-0.0268137
17.7234
-10.7129
22.3078
-5.82629
5.28629
10.3728
-9.83278
-8.07283
4.60345
-2.35691
-17.0276
5.52608
3.42869
-6.1568
-9.43295
20.876
5.99852
-7.55187
-4.08783
-5.34512
-3.86736
1.58413
-17.0245
19.3078
20.9377
-21.5931
-3.21196
4.02423
13.5096
3.40387
16.6751
-1.80935
-13.2816
5.37394
19.1461
-7.84499
5.85081
12.0893
-13.9158
15.6452
3.94479
-19.5162
-0.073716
-2.06599
17.7111
-13.8892
16.0247
-1.34128
20.9983
-14.2831
19.6403
-15.1308
0.810525
6.0812
9.62286
-16.5146
4.42813
6.75496
-10.3726
8.21054
7.10984
-10.8922
-2.90052
17.6712
-6.56014
11.4877
-8.30706
0.0534599
6.7015
9.67632
7.55423
-12.3226
9.36609
-4.59777
-2.53038
15.5053
-5.4207
0.161499
6.94834
0.979801
-1.81461
10.6561
6.863
14.9888
11.8619
10.1348
-4.86193
-17.1348
-4.45569
8.82646
7.49109
5.67916
-12.3023
0.769581
18.0695
-6.53677
-6.90008
3.42422
-6.245
11.9242
-16.7591
-4.97855
12.3997
9.338
11.2236
-6.87255
-21.1101
15.8459
-9.08599
-15.4661
8.70624
1.72189
8.0028
6.1212
-5.96081
18.6546
-20.8205
8.16078
7.12932
2.4741
-17.0381
7.43468
6.47179
11.4934
-10.8359
-5.83614
-17.437
6.01825
17.2549
-20.9462
3.63276
11.4773
-4.88636
-6.0669
-9.99292
-14.788
-7.53534
5.59748
7.00296
-10.1263
12.0693
11.5514
-0.0757907
0.0177873
1.35237
-5.05638
-6.65545
10.3595
-8.86573
16.2363
-11.6092
10.1856
12.468
-11.532
-3.95832
6.64399
-10.6138
-1.45551
2.31436
-4.95933
-11.2315
9.60713
6.58372
-9.96776
5.00844
9.12659
-2.21562
8.67954
-15.5905
-0.841176
7.4758
-16.0588
6.3674
6.98513
1.99524
-1.50457
-0.653904
-7.2727
0.231032
7.69557
-8.95558
-1.28757
9.58925
13.9886
0.417474
-3.46914
-10.9369
14.7814
-9.74841
-2.13451
-1.12875
-0.173391
-6.0526
0.293985
5.93201
-8.79395
8.62056
-4.00743
-6.76438
7.65433
3.11749
8.15514
-12.1626
-8.71295
-0.0810038
12.1861
0.941112
0.576478
-13.7037
-0.057471
12.2436
0.807097
-8.57893
8.91235
0.645272
-8.98114
9.18556
-0.330685
1.25014
-7.70314
0.400397
3.67132
-6.25077
-10.7701
7.83835
-12.8549
15.7867
-10.5395
-0.230626
-4.70046
17.5589
-5.0201
7.3278
-7.52985
-9.40024
9.60228
-3.75589
11.0837
6.05541
11.1165
-10.1591
-7.01276
-4.48406
8.23995
-5.27062
-10.4992
-3.10236
1.36393
7.15682
13.8411
-17.2073
-3.79065
-11.586
14.0423
3.6252
-19.055
-13.573
-1.11533
-19.2528
9.30498
-0.961563
5.26468
-5.94271
1.63959
-8.93008
7.96852
-7.67081
0.334979
-5.05912
-5.68736
-1.98344
-8.04374
10.6627
2.25612
-21.8489
3.588
1.13202
-5.76258
0.0752188
-10.1033
6.59688
-3.36352
2.01175
-5.53025
-0.409303
-2.95422
4.2975
-1.3338
-6.38282
3.41912
2.91134
0.39905
0.987108
1.79682
1.7588
-4.88941
-0.438564
2.23538
-4.24377
4.11051
-0.305307
4.65797
-7.14294
1.82608
-2.7826
3.54207
3.35104
2.50011
-0.62474
-3.86517
-0.926024
1.54628
0.537416
-0.71777
-1.6036
1.78395
-0.107848
0.378123
0.267142
-0.0151079
0.142403
-0.169503
0.0422076
-0.648967
0.919508
-0.28565
-1.12297
2.38652
-1.91252
-0.0688873
-1.05409
0.00809251
1.06019
-1.78606
0.780843
0.375904
-1.01434
-0.0279943
0.70099
-0.307016
0.287114
-6.17873
6.03717
-17.9286
18.0701
-21.7382
2.96576
12.5937
-2.40787
-10.5294
-8.80098
17.4796
-11.2495
-8.63789
11.1656
-5.8837
12.1976
-4.46194
14.4878
-3.98868
9.66942
10.4264
-2.4831
-19.1929
4.54275
-16.1732
-0.74902
-1.00631
-7.67046
-19.0322
12.2173
-6.68856
7.18338
-12.7121
12.4948
-1.02654
-2.21116
6.7539
-16.8421
-4.97223
8.5774
8.88967
-1.29445
-0.27474
0.919188
0.650002
1.798
-0.691691
-2.40076
1.52326
-0.311277
1.36427
-1.74468
-0.939089
-2.14712
-1.0432
4.12941
-0.286493
-1.11327
0.460679
-2.43361
0.264846
1.0296
-1.60572
0.070759
0.453915
0.910353
0.440307
-14.1837
13.6739
-14.1053
14.6151
2.43614
-3.44534
-13.1745
3.60526
11.6935
-20.3718
5.07304
5.94787
13.9895
-16.3321
-5.22115
7.65729
13.2875
-6.74468
-0.594929
-0.311434
0.236891
13.362
0.0960111
13.8935
11.7895
13.582
6.56839
-6.92685
-15.9891
13.2769
9.6391
-12.1699
5.30921
-0.0661412
-2.66765
-4.27624
-9.04521
-5.03799
-9.79958
7.91125
-7.94421
5.34217
-3.45408
13.8714
-12.1062
3.65638
-5.42156
-8.98343
15.7794
7.07538
-7.39481
-5.86486
-15.8073
-3.69369
10.5736
-6.91719
-10.4156
-4.55416
7.02557
-10.6812
-4.77245
-11.4713
-1.19022
-2.64638
-0.153008
3.98961
4.17629
-1.79799
-0.550142
-1.82816
-2.93615
0.865846
1.35727
0.713034
-1.10125
4.21133
-3.11008
1.47057
-2.57182
-6.42822
0.717439
19.2469
-13.5361
4.36343
-11.3173
0.525602
-12.9218
-5.9834
19.6226
-10.4705
-5.41268
2.9614
13.8963
-10.8332
-15.4282
12.3651
15.382
-7.46915
-23.9176
2.61386
1.42041
2.82575
-5.40941
1.16325
3.7341
-4.41204
2.09835
6.60603
-5.95372
-4.97307
4.32075
0.589779
5.45454
0.561715
0.567491
2.84804
0.796684
3.50491
1.23723
-5.1541
-1.49255
-2.95404
-0.220772
-0.5187
-3.83463
5.56262
-1.20929
-1.70019
1.97818
0.910246
0.239453
-6.3038
1.17788
-3.22167
-2.69974
-6.56509
5.43019
-5.6667
1.26677
1.25695
-6.97121
-0.866119
-0.870608
-4.82836
-5.35494
-3.66253
4.04887
-7.8545
-5.26486
5.47354
7.64582
-0.727426
-2.46533
-4.66174
8.42519
-4.24821
-4.90441
-4.62861
4.98943
8.06438
8.49305
-4.26774
-8.47352
-0.511254
4.37569
9.78157
-3.55429
-8.6926
1.42798
3.08872
10.6686
-0.205654
-7.69026
3.51648
-1.14049
-10.8175
-11.6932
6.99845
2.8206
-6.36568
1.7611
5.29215
-7.85352
0.800266
-6.11274
3.88188
3.99197
-14.5916
-0.280038
7.96228
6.90939
-5.15589
-0.962955
-8.47278
8.43856
-1.44006
-3.09279
-3.90571
-5.15666
7.48248
-10.2134
4.77668
-5.31661
-10.0527
2.42462
-3.17994
6.04748
-2.71331
9.01981
8.4975
-4.36035
-5.57721
-2.047
2.69098
-11.9294
4.024
0.0623972
7.84302
-5.60834
-7.28404
9.27297
-1.51752
-6.89189
6.56776
-2.75624
-8.17187
4.1756
0.345158
-5.01569
1.76583
3.31227
-4.80511
-5.81893
2.76148
-9.07887
-15.1215
12.4341
15.3005
-12.6132
-2.3821
-17.3901
8.5671
11.2051
-26.4469
10.155
13.9098
9.09168
-13.3407
-13.141
-9.67929
-7.67592
0.469911
-12.2987
-1.02985
12.8587
-0.868111
11.13
-9.792
12.7995
-13.466
-0.201583
-11.2812
10.1147
9.73362
0.55411
-1.7488
-13.9268
-15.9251
15.4983
10.5819
9.64139
-11.8521
15.8481
-12.7278
-1.08572
2.19724
-2.27431
-1.23243
17.6409
-14.2112
0.270828
-2.37621
2.27217
-0.166782
-0.0412233
0.312052
-2.08591
-0.891341
-0.229566
3.20682
-2.12713
-8.96558
-2.61423
6.43939
5.14041
0.150085
-1.50996
-7.6057
3.87229
-2.64359
-3.35583
-0.389652
3.3706
-7.05247
4.17727
0.260972
-1.1316
-5.77078
0.17986
-0.390385
0.522577
-3.32795
-0.234253
2.27685
-4.54394
-0.529048
6.57878
3.41397
3.88742
8.4245
-15.2871
2.97516
8.63041
-11.9175
7.17456
-18.725
-5.67838
11.4568
12.9467
-15.8991
0.109367
-2.9353
-6.44569
-12.1946
17.1239
1.51639
8.3284
-4.82875
-9.94534
7.76007
-7.47161
8.13604
-0.197386
16.5879
-9.35615
-1.52498
-1.03643
-16.3148
11.0546
8.62404
-24.5074
14.9197
-16.0598
7.51594
-14.791
0.312586
17.7582
-2.72908
10.4798
-5.08628
12.3646
21.7392
4.56606
3.82948
-7.14292
-5.37916
12.433
5.51746
-8.22091
-9.72954
3.73716
4.92579
3.77004
8.72067
-3.37904
-1.51215
3.37169
8.4377
-1.1994
-3.83207
8.40316
-2.67821
4.29941
-5.1092
-12.9181
6.3341
7.61179
-9.51698
5.64234
9.11846
-2.20068
-1.40033
7.04279
7.00146
2.9124
1.45218
6.69212
-10.2176
-2.67844
-0.835314
-17.6032
-13.0874
-4.10884
2.01076
23.6398
-21.5417
-17.4707
0.120077
13.2418
-15.4422
-3.68735
1.65885
-1.87342
-12.8402
16.7244
-8.69805
6.9447
-7.4687
-11.4779
3.50445
11.2427
-4.57205
-14.4342
7.76347
18.2823
3.06391
-10.1034
-7.75171
13.1937
7.7234
9.78486
-6.78673
-10.7215
15.0288
-7.55744
0.25206
-19.5971
8.49847
3.34688
-6.74829
-14.2818
14.0822
-2.94034
-4.66582
-10.3603
-16.0246
-10.1607
6.6652
6.00201
-2.5065
7.75976
-12.9243
-4.99618
-10.2954
13.3017
3.01191
-6.01827
11.5247
-16.4526
-5.36741
2.92812
0.0746558
8.52188
12.5051
3.72471
-13.8948
14.2351
6.32487
0.162248
-6.29726
7.58964
16.1834
-17.605
-6.16805
14.6947
-6.94278
11.9794
-2.96544
1.9581
10.6693
-0.122228
16.2769
-4.7975
4.70409
15.5428
15.4288
1.63184
12.3056
0.878354
16.555
-1.89056
16.7453
-8.46342
-7.29012
3.32867
12.4249
-9.3578
-2.6331
3.52748
0.83965
-10.7679
0.570464
11.8187
-12.4117
1.43266
6.03794
-9.87241
1.20137
0.152294
4.37625
5.88242
10.2784
-10.1229
-5.87218
15.0833
-5.99982
-2.65361
-1.21898
3.33931
-7.92807
-1.41107
2.68555
-10.1141
-1.30833
-8.4178
-4.4977
3.42774
-4.80222
-4.11844
2.95604
9.17671
-8.01432
3.17629
-3.88727
-3.40746
-2.30006
5.43058
-5.78412
-8.04584
3.70044
-6.17788
-12.4625
26.9972
-6.85359
-7.68119
4.86454
-16.6244
-0.702604
5.3401
22.452
-22.9276
-0.702251
30.1006
-6.15853
-23.2398
7.08235
14.3289
-34.8756
13.4643
21.9869
-17.349
4.79546
19.9781
2.22373
20.6902
6.55728
-2.50802
18.7449
4.45331
17.3765
2.10229
16.1133
21.0696
-8.45504
-8.33997
35.5399
25.0348
28.8682
-17.2301
7.84818
-2.00309
-10.497
4.65192
-10.7892
16.8055
1.83191
-12.57
4.36496
-1.61141
9.81647
-5.28681
-12.8402
19.8809
-1.75391
14.8516
-6.63794
-13.5005
-1.58559
3.8672
-11.2229
3.8326
5.38725
19.691
-19.4837
-10.7043
-9.93439
18.8362
-7.21531
4.78864
0.84108
-2.51868
-11.3346
-5.43617
-0.998138
-3.61581
-6.0213
-9.84661
-16.4245
8.62178
-2.13166
-7.65762
-12.3827
-4.41939
-7.03808
-2.78058
-10.8928
6.01572
-9.71865
4.07018
0.266224
1.71108
-7.12454
3.71027
7.48445
0.940564
0.954704
4.57581
-0.141775
-1.67255
3.5364
1.30564
-3.24324
-0.948897
7.9024
-3.64693
1.34426
8.04135
-4.714
-1.02181
-2.30555
2.87301
7.56547
-2.39713
-1.54351
6.88854
-1.2625
5.46051
-0.565074
-11.7208
-2.55297
14.8388
-8.53311
10.0794
-2.11136
-13.3734
6.45738
-2.53003
9.44605
-1.78016
0.110967
-6.86392
-2.55469
-10.9463
-9.97677
9.66049
-2.23669
-11.7565
-1.84624
11.3499
2.25285
-5.49714
-19.6327
-3.46153
-0.0578526
-6.60434
5.92166
10.6403
-9.95757
-19.7318
-0.454267
13.5818
-7.03569
7.66377
-14.7504
14.1223
7.04919
-19.582
-11.9145
-3.18315
11.6361
-5.92493
-6.14314
-10.7902
0.332576
13.8266
-3.91844
-10.2408
17.7125
-4.7889
-12.591
-5.59835
16.3618
3.0632
16.2363
-4.12212
-2.95587
11.829
-13.6621
2.51351
8.43729
-13.9067
-0.631127
-12.7385
2.0826
11.287
-7.42368
0.0171165
6.77543
-2.13697
6.54232
7.40655
6.69274
7.45327
16.3151
8.53073
-9.93566
2.44718
-6.7484
-5.7095
8.37177
4.79099
-13.9544
-2.73322
10.9781
-2.9765
22.1102
0.247655
-4.96495
-17.3929
13.9095
-1.36613
9.56682
5.1565
-11.3496
20.1026
-3.8881
17.5268
-8.07893
-5.55979
21.0222
-12.118
-12.7923
-22.4862
29.2084
-6.47457
-5.39864
-13.1148
-3.97276
-7.88619
-1.6212
14.6639
-13.4286
4.17627
-8.62795
9.65275
16.502
5.82336
6.57087
-16.0536
8.44835
-5.37057
-19.0451
8.36213
2.31112
-19.7997
5.72468
-11.4925
0.517328
17.3415
-17.1246
6.83624
10.8057
-16.7986
14.8678
29.7673
-25.6277
-22.7215
18.5818
-1.70519
16.231
15.2415
-4.04567
27.1542
-10.6692
-12.4393
12.2043
-24.3793
29.7562
-17.5812
-16.7457
3.32242
14.9644
-31.9989
15.3293
6.79174
10.2049
-41.376
-20.2338
10.2798
-14.4453
25.364
-0.272027
13.769
16.1719
-29.6689
-12.4332
10.1905
29.0345
-26.4288
7.59916
-26.6184
11.9011
-10.017
45.2323
-28.908
-2.14671
-14.1777
23.9772
30.7832
-9.52816
-20.3042
28.295
-20.4164
12.4257
-37.2403
-11.9719
46.3249
5.94731
-5.06892
-30.3418
-1.82954
12.2873
8.11888
-40.8226
-18.878
-20.5523
25.1422
14.2881
-15.7894
3.52627
-6.61491
24.0697
-29.8635
25.337
-19.5432
26.2044
10.1526
-4.6906
-26.2502
25.8719
-1.61754
-34.5662
6.32027
-24.1257
0.113163
3.46024
-22.813
-17.1021
21.403
4.04711
30.9561
16.6514
-29.1211
3.84247
9.09766
-1.56542
-11.3747
-11.8501
11.4112
4.28137
5.71895
-12.7929
-4.77616
-8.6817
14.6143
2.05243
-7.98505
11.211
-16.4064
-3.48635
-4.40693
-2.36885
18.187
-3.62798
8.31871
-1.07426
5.51045
10.1781
6.50878
11.2917
-3.52031
14.4333
-6.51645
-0.881903
2.80043
4.59792
-4.16983
0.290346
-2.63697
1.90183
-1.52978
-4.54187
0.526549
0.493375
-0.227956
1.83751
-1.083
1.44491
-0.642874
-1.02999
-0.405688
0.476636
1.76656
1.0614
-0.0221745
-5.01311
1.69906
6.11448
-2.90186
-1.8209
0.238
1.61798
-3.38576
2.02785
-1.21071
0.406239
-1.22338
0.144426
0.901988
0.981434
1.25521
-1.66009
-1.13028
0.590599
0.68411
-1.08578
0.807194
0.844803
1.27451
-2.5584
-3.55487
2.36295
2.0939
-1.87411
4.47375
-0.41173
-9.76935
-10.2287
24.0395
-4.0414
-15.1216
-18.1132
23.4654
5.66533
7.95102
-0.237532
-13.3788
-0.343904
-9.11232
6.48656
-8.76427
-12.4772
1.9557
25.0811
-14.5597
-0.844869
12.4072
-6.19168
16.2849
-10.4372
8.50212
-14.9313
8.10441
-16.5831
7.63385
-6.01486
-7.39003
15.3606
-9.25274
11.3423
7.94504
5.34651
2.99339
-4.30186
-5.79472
7.20114
-16.6483
0.194452
7.75615
-12.4481
5.95354
-3.79409
-2.10492
-0.0545262
-1.22686
8.418
-1.23761
-1.12186
2.45764
-5.90617
4.57038
1.18791
-4.42847
2.1187
7.38601
-8.0803
-3.0998
8.6168
3.83007
-2.38847
-4.81763
3.37602
2.11314
2.90484
-0.991898
-1.06528
-3.84899
-3.53521
-1.88515
-6.29361
0.369928
11.0201
7.32376
-3.75595
-14.5879
-2.26974
6.31846
6.9714
3.26962
1.78441
8.5459
-2.54891
-2.72737
2.84306
6.05376
-12.6528
-11.2579
3.82494
15.9788
-0.665782
0.22212
-10.8142
5.42722
-7.98369
5.39953
8.82478
3.38461
-6.15562
4.32246
10.8208
9.663
-10.537
0.208206
17.8104
-1.72517
18.7454
14.9707
0.352951
-34.0691
-0.126057
26.1777
-7.30625
-41.0776
10.3323
15.682
15.0633
2.54268
-14.6136
-29.0067
42.3648
-12.035
-27.787
28.3485
24.3486
42.5901
-39.6544
2.5558
28.2701
11.7642
-11.847
16.2988
-4.57779
9.5626
-21.0567
-28.2263
21.5558
9.22623
13.9002
-15.9488
18.0258
-23.0768
13.7346
42.884
11.9722
11.4471
-5.39352
20.5999
7.05433
-17.4171
8.90992
30.063
-9.398
5.88112
-12.9559
11.1904
22.3654
-3.77654
2.26769
3.12424
33.8349
4.87066
6.69606
-27.0447
15.478
10.573
26.6628
-32.3652
0.513007
19.6832
-13.5002
31.9047
-20.8187
36.713
-16.0062
5.95607
46.3679
2.90606
-21.8929
-27.3811
22.1539
17.9405
-20.4112
23.5165
31.9379
-23.5497
45.9759
-0.305489
1.18902
30.1882
14.9906
-44.9505
15.2025
30.937
-18.3198
18.0335
-44.6642
33.5458
-12.6993
-3.28067
15.1216
20.097
18.7241
23.9712
12.5066
-4.92419
25.9634
10.8599
20.3707
-18.4977
31.9089
1.79125
18.9997
-0.606497
15.6236
-0.202934
16.5238
-3.89245
-12.4284
-5.00698
20.56
-15.7559
-2.98131
20.9475
-22.9731
12.8323
1.19612
-17.0098
5.78427
13.3634
-2.62393
21.3325
5.01176
-5.00478
14.1564
3.68068
18.5219
-2.57918
12.7229
-15.4192
-17.4441
-13.827
10.2824
20.9887
2.76834
-19.4627
-0.749707
16.0682
3.84634
-1.24863
13.4705
14.9152
0.835492
5.58178
16.0882
-22.8281
-1.42408
3.68536
0.269385
13.8593
2.88141
10.7852
13.5713
5.7861
9.75766
2.9747
-7.04098
10.1918
16.2879
-5.16471
8.34086
-8.52187
5.34572
-0.0183528
-3.92515
-1.22121
-10.1612
8.84078
-7.57809
8.89854
-3.25535
-12.5104
5.60453
-6.44443
10.612
4.6732
-4.95896
-1.50382
-6.4056
2.02345
-7.99926
12.3814
4.79147
-0.585061
-2.55596
9.37088
-6.98941
12.7743
-12.7713
5.53501
-1.2856
-9.76078
-6.93565
-9.4862
1.2719
7.0975
-0.653777
-1.0845
-5.35922
17.5449
-18.4467
-5.91174
4.45734
-0.522882
-6.04264
8.38422
-6.52582
-7.41871
5.56032
3.84243
1.79734
2.74445
-8.6758
-10.6683
6.70073
12.6434
1.74971
4.47784
-12.7534
7.53159
-14.4577
-9.41501
6.1114
-6.67678
9.98039
5.70112
-7.58454
-7.67269
3.0332
1.88693
2.75256
8.99845
-12.1933
7.10167
4.79375
-2.89697
4.77002
5.36485
2.06664
5.52141
-8.92804
10.1487
3.54932
-0.291867
-5.15068
-3.0931
16.4113
-8.1675
-26.5996
1.12098
14.0143
11.4643
-1.60202
-26.4404
1.44282
-16.0925
-2.57024
13.5121
8.0831
-0.95752
-23.2181
-20.6199
10.0081
11.7328
0.18511
-22.407
-5.37281
12.2878
-17.9791
10.036
-19.2457
1.45174
18.1154
2.27221
0.931186
-21.3188
7.74316
11.8735
-1.50123
-6.95545
-4.53615
6.27028
5.22132
-13.7272
-8.53683
15.3086
-12.846
13.5618
7.02733
2.09488
-12.6686
-13.202
11.3482
2.21862
-14.4894
-4.52036
18.4491
-0.366937
-3.41566
-17.9538
16.8333
-24.2479
2.88267
17.9496
-2.14597
-25.9394
3.83751
-20.8124
0.712635
-16.6242
14.9866
3.40487
-21.9986
0.171401
-22.706
-14.358
-17.1534
3.90846
13.6781
-0.433131
-8.25314
5.28522
-14.1855
-1.56449
6.4061
4.88421
-9.72582
12.1279
5.79551
-19.4879
1.29442
10.8215
0.0120274
7.13181
0.568718
18.5238
9.09614
-15.2573
-12.3627
11.8689
7.67234
-1.01737
-16.5672
10.7993
17.6368
-5.26773
-2.20332
9.17121
-12.5401
10.9096
2.17002
6.67179
-3.83138
2.4448
15.9052
4.44461
-14.7419
5.28016
-10.3482
4.24589
16.9016
-4.79447
13.2933
4.74817
8.97273
16.0723
-9.1398
26.5119
5.10218
10.0344
0.682796
-15.8193
10.238
-11.7125
6.57678
-4.68282
1.10418
13.8166
-2.8424
8.19394
3.44819
-0.330212
-14.8305
-8.67511
-3.39531
13.1746
8.37191
-4.07857
2.67322
-6.96656
5.66392
7.95809
-4.35914
-9.26287
11.4479
2.76113
-8.54509
0.730991
12.0589
-4.83178
13.1515
-4.04859
-7.59304
2.36612
2.55875
6.04673
-10.4709
9.63433
-6.6433
8.23127
-1.08485
6.0956
0.695876
-4.93706
-1.85441
1.46388
3.15533
1.47638
-3.09968
2.35592
2.20765
-0.550611
-1.85319
3.99532
7.32606
-8.16605
-1.68372
7.66427
-3.62463
-3.20573
9.15285
-2.70403
-3.24309
2.14758
-4.50443
-0.848875
2.9775
-1.25634
-2.27177
-4.89864
6.19242
3.35649
2.34414
3.45222
-6.03763
4.49547
-5.14639
-6.85098
-4.88729
4.76252
6.97575
-9.03329
1.08742
1.09489
-2.28145
-2.96801
0.362171
6.86076
-8.32021
-0.822
5.7416
-8.42873
9.54788
-6.33546
16.8396
-4.51003
-7.49127
7.11042
-8.7597
2.7367
-5.45976
6.23473
-8.3114
-0.0696208
0.0608087
-3.93439
-9.9541
-8.78749
-0.0600324
0.0878172
13.4226
-0.472804
-11.275
-1.67475
16.45
15.7938
-19.8545
-12.3893
3.97642
10.9439
1.52971
12.1145
5.28445
14.3945
3.03982
-1.64057
13.077
12.2614
24.0906
-12.2206
-3.59684
-8.27313
0.52106
-1.82358
25.3931
-15.1342
-0.592632
16.2479
-15.2403
22.7543
-14.7133
-11.6379
-1.0078
21.9386
23.2779
-17.0585
-6.59866
0.379279
0.629973
21.6401
10.8756
-13.4736
-14.4605
15.5875
-1.67208
-1.03318
13.5175
-6.53668
-14.7753
15.1843
12.7867
-0.195083
2.8551
-15.4467
1.84769
13.6473
-2.70826
21.3219
16.5917
-22.7417
-15.1719
-2.8555
10.588
13.5894
5.2469
8.48928
11.4905
2.49695
-14.1825
-1.66001
14.9982
12.032
12.2032
3.19648
-23.0831
-19.1832
6.85202
11.4931
0.838079
-12.6922
-1.02838
-5.46265
1.25499
16.9054
-6.12835
14.9127
0.070808
-11.787
10.1772
9.98237
2.86128
-13.0565
-18.6512
4.80707
20.6962
-13.0043
-6.67523
16.2393
-10.0723
0.41074
0.72483
-1.05337
-0.0821997
0.731562
-1.21828
0.897456
0.426751
-0.82557
1.13038
0.091291
1.06029
-0.463694
-0.302723
-0.286954
-1.0135
-0.668472
0.45477
0.428619
-1.18611
0.673616
1.58646
-1.80531
-1.2384
2.0033
-0.514361
0.0115156
-0.785036
1.28788
1.45741
-0.54097
-1.4308
0.836264
-0.540404
1.16155
0.596797
-1.05088
-0.371485
0.194665
0.359035
-1.95089
-0.64295
-10.346
14.6675
-15.5425
11.2209
7.78408
-0.135043
-17.995
0.940819
-3.19684
10.0401
-4.53243
20.1408
-24.8284
-1.11192
5.36306
20.5772
-13.7316
-1.49878
-9.59799
1.59906
-5.36413
-11.7774
-3.21305
-15.7035
14.3841
-18.5313
14.2064
-12.0708
-20.1922
18.2076
-11.2343
-8.47205
20.3738
-9.98466
-4.11979
-8.36949
-0.744244
-2.12057
2.97549
-17.1166
5.77162
-19.0799
4.11734
7.62513
-11.7425
8.88227
-7.87192
3.10699
1.42704
-2.43705
8.63515
-1.09619
11.4055
1.5138
-13.2563
-6.89582
0.537702
0.947289
-17.6998
1.80044
14.952
-15.1871
2.55155
13.5829
-21.9472
19.365
1.8023
0.779953
-2.25033
0.017698
-19.7146
-3.48718
5.1524
-19.0876
0.413301
-10.4974
11.9528
-0.481495
1.24142
-7.65574
1.69248
-15.4303
-14.2386
13.602
14.1448
-14.7026
1.70844
-1.43483
-17.6351
-10.6908
1.09378
7.19902
1.51639
-9.80919
2.41282
0.183514
-13.4789
10.8826
16.6922
9.35089
-18.9331
-7.10995
-9.44727
14.6715
11.4679
-6.83405
8.90141
-2.69147
0.624104
-9.07796
2.53544
-0.291529
15.1329
2.70801
-15.4281
-6.49836
12.5533
0.724977
-4.51533
-9.89107
10.3123
-2.87282
2.45162
2.40888
-12.1164
-3.23958
8.37432
4.21615
1.52713
-18.0514
-7.19516
8.16647
-9.74776
1.08247
-3.69342
12.3587
-7.96262
-24.402
22.6169
2.29612
21.3181
-13.3529
-10.2613
-12.184
2.30935
3.84692
6.02775
-12.8273
-15.514
16.1572
-21.8754
1.08547
-6.89925
10.3064
15.9731
-19.3803
-3.42056
-2.39622
-7.29774
-8.8316
18.4255
-8.68245
-10.3626
11.7473
-7.2427
0.869598
0.66881
0.80597
-11.913
2.21919
-8.51038
-10.6453
-7.43468
6.25442
-7.66155
8.84182
-10.9007
6.45296
-2.98694
0.211998
-10.9367
12.3674
-1.64266
-9.66889
-1.01982
-6.15714
-3.66149
16.0731
-6.24393
6.53975
0.221326
-16.1312
9.66592
-22.1039
8.60905
13.7162
-0.921806
6.93939
-15.6865
7.42442
-19.283
3.81756
-13.0093
-6.76257
-11.5238
-0.301882
5.00773
-10.5357
15.4833
17.3903
-16.7284
6.55269
47.439
-28.9451
-1.74586
-16.7481
1.32237
21.5377
24.579
-33.519
-2.73014
23.6987
12.5505
-19.7626
-42.7014
-25.4788
12.8142
13.9871
-17.1832
-10.0415
-26.8346
14.0304
10.0741
-12.1451
8.9194
-23.609
0.548051
-32.4558
8.61024
36.6261
10.1519
-14.655
17.3173
-32.5143
29.0435
17.5013
-5.59161
-18.0033
16.2091
9.85891
-25.52
25.715
-6.95295
14.0544
-15.0285
-2.61159
2.011
18.9552
-14.6879
2.02225
14.3213
-6.9034
3.24791
-14.7329
18.3884
15.8161
-18.0296
-1.25567
4.65257
-6.95053
18.1141
-11.3088
-0.460408
-10.7859
22.5551
-1.78186
-16.4303
-2.82176
22.2557
-5.57956
0.767308
-13.2174
-10.0296
19.1887
-9.61949
3.23044
-15.0419
-19.3542
17.0051
2.44625
4.10453
15.8031
-22.3539
7.5526
24.4744
-29.5808
13.1853
-9.17014
10.3393
17.0608
3.31054
-1.18266
21.7917
7.67832
6.59646
-26.1269
10.9653
-16.4281
-6.15811
9.07361
8.28959
1.42146
18.5434
-8.99954
10.2255
9.74543
-13.3745
-6.531
18.178
8.60822
3.77708
11.432
7.07888
-9.90265
-0.858916
9.51862
1.94427
2.22844
-15.2375
11.0648
15.325
-6.649
6.92459
-15.6005
-4.5195
-0.976226
20.8207
-12.8087
3.49834
-2.09881
11.4091
4.11706
-14.9815
-4.41447
14.9453
-15.0503
-9.95008
-3.82653
12.8004
-16.6204
0.0213527
21.4022
-0.919913
-10.0078
-10.4745
2.16339
2.18902
17.0498
17.7275
-9.24826
-9.39916
4.4909
15.4
12.9571
4.0085
-12.8486
-0.164952
-0.465043
-12.7217
17.1952
-4.20396
-12.2547
15.9936
19.4259
-11.7478
-17.6858
17.2004
13.9215
-13.2571
-13.7233
14.1145
10.0205
-19.7559
-4.37915
-7.2309
12.1206
9.22476
6.34137
-3.55172
-15.6111
4.05419
12.2509
-0.693934
-17.3668
-11.9108
13.6664
2.24691
-14.5278
18.6223
-4.43678
-11.6778
18.3614
3.67149
12.5033
14.2386
-13.1039
-5.57151
19.7879
-9.89856
4.34931
4.40348
20.8901
-5.50567
22.8446
-14.7696
-9.95421
-2.22468
-4.30056
16.4795
-15.3827
14.8207
-9.3922
9.77477
-6.90626
-2.86851
3.40658
-0.769273
13.7655
-16.4028
0.0749101
13.1064
9.1389
-4.66034
-6.70324
1.52094
6.56561
-2.36823
-5.71832
8.95267
-7.43174
2.04641
2.36416
-12.8936
9.76019
-6.71674
9.15581
-8.40611
-17.5768
19.2661
-6.3597
-18.4082
-15.4162
16.2477
-15.3853
-9.38263
-5.35475
-3.31578
-6.74572
-14.1744
-7.0705
1.6758
11.4262
1.50665
-14.6086
-17.2918
15.0643
3.9033
0.448682
-0.605325
-17.1352
-1.44288
-0.209981
16.7172
-1.43349
11.4168
6.10122
-22.4106
18.2397
-1.93034
13.6764
-12.4615
4.88627
16.2543
-2.96548
-17.0525
3.76366
17.127
-0.872636
-17.5756
-2.06253
19.4282
-0.860186
13.1031
5.71032
-1.52477
-26.5961
-9.17118
2.41999
19.398
-1.49317
0.334899
1.20452
17.3333
15.7906
-20.2808
-1.29811
16.216
16.8416
-17.6997
-20.2644
-18.7183
27.166
11.8168
-5.5918
-30.2722
15.5996
9.38203
-2.98319
-25.1171
6.00342
34.0451
-12.8826
-29.1161
-10.236
17.3309
22.0212
20.3941
-33.8445
5.51531
7.93503
-5.70458
32.1021
-30.0062
-5.04964
5.93978
-25.2515
0.789071
0.62568
-20.8837
-4.99348
34.9963
-28.3343
-6.03632
24.6397
15.872
-12.7877
31.7228
26.3481
-37.109
-2.02682
5.39402
-22.5605
-3.71723
-24.3515
1.41118
2.5855
-4.16514
-2.68454
4.26417
-1.81948
1.57486
2.83012
-0.872179
-0.0155372
-3.27742
5.35541
-0.152548
-6.07505
5.03283
-4.36086
-5.39582
4.72385
-1.95355
3.58215
3.40422
1.58239
0.521119
-5.03453
-2.43057
6.46813
0.535834
-20.8732
13.8692
-5.74999
5.64595
6.57217
10.6201
-0.733725
4.40034
-14.2867
14.1235
6.7816
-20.3693
-12.4463
12.7725
16.8451
-17.1713
-1.31265
-11.1336
-12.0727
9.60387
13.0889
-13.3853
9.72108
3.66873
13.6379
-8.94931
2.09298
-4.46127
26.8376
18.8977
0.924543
-2.8358
-14.4164
16.3276
-1.86562
-12.6763
15.4665
2.59735
1.38639
-18.2351
14.2514
-15.1292
15.8609
-15.147
13.6976
6.40048
-12.2929
-8.52395
-6.27585
-4.28435
-16.4976
5.65269
8.00109
-4.1415
2.37128
-6.23087
-18.5974
11.4515
-2.27954
-20.4594
-10.5602
-1.47942
-14.3844
-2.90619
-15.0708
1.40002
-15.9724
-12.0664
13.1664
-13.638
5.38786
-4.91622
-6.92487
7.23967
12.8516
8.49026
-2.49718
-19.6311
1.56539
9.43631
4.17603
-8.22448
19.4599
-2.78395
-7.68213
9.24752
-11.6002
1.58486
12.012
-1.99674
-5.42006
-13.8622
-17.2761
9.3589
10.0406
-14.298
-14.4401
18.6975
-0.353891
10.3945
-0.518795
10.6246
1.54768
-11.6535
2.15297
-16.9698
9.30794
9.1607
-7.84405
8.95404
-0.717489
11.4849
-9.21972
15.2328
-13.7973
0.274761
13.1698
-13.8566
0.412017
4.13499
-6.73665
17.8344
-0.669217
-12.8082
12.6905
0.786848
8.28483
-3.58911
-0.0583442
16.6545
-12.4635
-0.0559625
-0.26311
17.4344
-0.516826
0.56787
7.99172
12.9953
-4.56773
-18.7907
17.722
-14.7221
15.7908
-11.6933
-2.93612
-4.16128
4.98395
-1.69763
14.4357
-26.5209
1.79181
10.007
-22.5974
-15.6167
-11.6717
18.1066
-1.45086
18.3232
-14.588
-6.67134
11.9796
4.64604
-19.7368
9.85687
31.1648
-8.32262
-32.8726
10.0305
27.0457
-15.6177
19.0311
4.42889
-7.1452
-16.3148
12.6827
5.19722
1.15118
1.99328
-32.9133
-13.6109
13.9175
12.3761
-7.08138
-2.10059
15.8318
-20.9837
6.44102
12.3412
11.0169
-11.7365
-11.6215
-5.93659
14.4501
3.82763
-21.4074
4.06433
14.4555
2.88762
-9.95714
-0.433415
18.5948
-12.5643
1.97417
-8.00463
23.6993
-7.15169
2.04719
11.4445
0.251117
-23.4322
8.34693
-2.83898
13.5774
4.93704
11.2884
-22.4403
11.403
6.80685
-8.08279
-17.6099
-16.6913
21.0388
13.2624
1.5422
-10.8052
-8.3423
0.0535548
35.1729
-22.2477
-12.9788
32.5086
-11.9509
-20.5042
5.21557
15.743
14.2144
18.1399
19.5843
-21.5144
-6.39338
5.66011
11.2027
13.0194
-8.47909
-11.0219
2.27025
12.7385
-3.98683
-11.5245
-1.87776
2.38031
16.6805
-4.69236
-12.8915
0.903357
11.3818
-6.22572
-15.7554
17.2522
6.09975
-7.59647
6.7664
-20.6431
-1.8787
-1.96147
15.4344