/*--------------------------------*- C++ -*----------------------------------*\
  =========                 |
  \\      /  F ield         | OpenFOAM: The Open Source CFD Toolbox
   \\    /   O peration     | Website:  https://openfoam.org
    \\  /    A nd           | Version:  10
     \\/     M anipulation  |
\*---------------------------------------------------------------------------*/
FoamFile
{
    format      ascii;
    class       volVectorField;
    location    "9";
    object      U;
}
// * * * * * * * * * * * * * * * * * * * * * * * * * * * * * * * * * * * * * //

dimensions      [0 1 -1 0 0 0 0];

internalField   nonuniform List<vector> 
75457
(
(5.02596 -0.114825 -0.830684)
(5.15866 -0.970794 -1.17522)
(7.34647 0.180984 -0.662632)
(9.56203 -0.169415 -1.07736)
(4.31413 1.24973 -0.00705959)
(4.49475 1.4013 -0.136395)
(5.49227 -0.348407 -0.654425)
(5.2218 0.665599 -1.06273)
(10.6623 -0.450367 -1.18098)
(10.5021 -0.227875 -0.977436)
(10.7317 -0.0475032 -0.986462)
(4.81792 0.668577 0.19394)
(4.92643 0.459662 -0.217412)
(9.57646 0.0212279 -0.440249)
(11.8711 -0.349036 -0.115225)
(11.9644 -0.346761 -0.0974987)
(12.3494 -0.416264 -0.253061)
(12.1287 -0.43602 -0.30911)
(12.0507 -0.378874 -0.119509)
(12.3601 -0.365462 -0.191143)
(12.1773 -0.413065 -0.272923)
(12.2444 -0.407443 -0.137104)
(11.9337 -0.36401 -0.107173)
(11.9319 -0.368722 -0.141313)
(12.2216 -0.426815 -0.118396)
(11.7137 -0.409389 -0.292497)
(11.6668 -0.440734 -0.319608)
(11.3121 -0.982474 0.45168)
(11.1425 -0.972439 0.62865)
(11.2817 -0.982167 0.447394)
(11.4072 -0.893378 0.405828)
(11.0808 -0.973453 0.587536)
(11.084 -0.944323 0.60048)
(11.6142 -0.732095 0.378967)
(11.5938 -0.723398 0.352956)
(11.7533 -0.689198 0.596452)
(11.6793 -0.764499 0.423848)
(11.0372 -0.969914 0.664178)
(11.1469 -0.932331 0.64597)
(11.632 -0.673294 0.391295)
(11.6536 -0.665691 0.409936)
(11.6385 -0.700733 0.433104)
(11.7164 -0.751458 0.601193)
(12.7215 0.604831 0.386102)
(12.5276 0.632488 0.308691)
(12.8408 0.533578 0.378084)
(12.8532 0.519816 0.406517)
(12.7016 0.567339 0.371606)
(12.1709 0.297412 0.109593)
(12.4259 0.403107 0.172718)
(12.4335 0.405206 0.15248)
(12.241 0.308243 0.148639)
(11.9439 0.338096 0.0350458)
(12.35 0.398469 0.153132)
(12.4703 0.374721 0.209122)
(12.4641 0.367893 0.180836)
(12.0339 0.398459 0.100445)
(12.0509 0.393272 0.0831912)
(12.1276 0.290748 0.0695522)
(11.9061 0.324124 0.0237503)
(11.9835 0.369562 0.0728564)
(12.2152 0.298924 0.110252)
(9.94907 0.056672 -0.310858)
(9.95452 0.0671566 -0.335791)
(10.1405 0.0886943 -0.264141)
(9.93835 0.0620667 -0.303388)
(9.95901 0.0564875 -0.283492)
(9.90869 0.0353916 -0.279672)
(9.92855 0.0418124 -0.217147)
(9.82133 0.0279339 -0.241155)
(9.83597 0.00892605 -0.23799)
(9.78183 0.00207606 -0.250605)
(9.96156 0.0488187 -0.225977)
(10.1322 0.0903199 -0.263452)
(9.93909 0.0487719 -0.203965)
(10.1133 0.0805676 -0.231885)
(10.1016 0.0724213 -0.219571)
(1.00033 1.29127 0.878266)
(-1.01806 1.43999 -0.193372)
(-1.33976 1.233 -0.0947675)
(2.21606 1.60196 0.917381)
(-0.713121 1.94026 0.0193095)
(0.74342 1.15111 0.51637)
(-0.682133 0.902408 0.326959)
(-1.16329 1.43691 -0.183512)
(-1.46169 1.61921 -0.450613)
(-1.13262 1.2809 -0.328937)
(-0.904892 1.08039 -0.469236)
(1.82265 1.26585 0.218079)
(2.38655 1.59721 0.622724)
(0.104247 0.894529 0.10537)
(-0.749902 0.773893 0.00618924)
(1.02183 1.6525 0.891082)
(-0.712455 1.20316 0.192978)
(12.4608 -0.275807 -0.0161685)
(12.8414 -0.281684 -0.018893)
(12.8414 -0.285461 -0.0184975)
(12.8612 -0.28575 -0.0136823)
(12.2431 -0.274402 -0.0169972)
(12.4957 -0.273175 -0.0176461)
(12.4942 -0.284851 0.00584924)
(12.3548 -0.265456 -0.0160499)
(10.0174 -0.00991314 -0.0197911)
(10.0276 -0.0091877 -0.0166888)
(10.0209 -0.0148863 -0.0221666)
(10.0211 -0.0193718 -0.0155489)
(10.0122 -0.0173952 -0.00669344)
(10.0238 -0.0172735 -0.00585044)
(9.85534 0.000682662 -0.0204934)
(9.93368 -0.0143984 -0.0150061)
(9.94519 -0.0181563 -0.0109714)
(9.90214 -0.0187696 -0.00161424)
(9.87113 -0.0258586 -0.0230506)
(10.7428 0.115925 0.0664322)
(10.7796 0.139287 0.185639)
(10.3799 0.097702 0.111842)
(10.3684 0.0329529 0.0380478)
(10.7575 0.0876419 0.203209)
(10.6324 0.152069 0.114983)
(10.5329 0.201823 -0.0211943)
(10.8455 0.107493 0.265863)
(10.838 0.132115 0.274595)
(10.736 0.12995 0.268239)
(10.5404 0.154119 0.126168)
(10.4429 0.126798 0.0889207)
(10.4877 0.123729 0.140505)
(10.5397 0.166491 0.0555123)
(10.484 0.0937842 0.149341)
(10.5227 0.0585688 0.0817379)
(10.6251 0.117706 0.226652)
(10.7184 0.116364 0.243921)
(11.2994 0.00660119 0.356618)
(11.3715 0.0800543 0.308798)
(11.3732 0.0563628 0.338614)
(11.3021 0.0342463 0.306922)
(11.2972 0.0196079 0.296893)
(11.2897 0.0801765 0.314955)
(11.2206 0.0381459 0.295704)
(11.2268 0.028174 0.338464)
(11.1749 -0.00757091 0.312164)
(11.9209 0.03718 0.180839)
(11.9274 0.0231622 0.200947)
(11.8189 0.01595 0.233571)
(11.9309 0.0323739 0.151529)
(11.9643 0.0210017 0.170862)
(11.6614 0.0253404 0.115735)
(11.8345 0.00615926 0.241979)
(11.8679 -0.00427181 0.20679)
(12.8021 0.0418517 0.00937961)
(12.895 0.0574339 0.0420101)
(12.6647 0.0224894 -0.053782)
(12.6856 0.0915034 0.0237304)
(13.0989 0.0485249 0.14157)
(13.0437 0.0917862 0.18616)
(12.863 0.0560741 0.0840106)
(12.6962 0.0882407 0.0219289)
(12.6659 0.0756596 0.0690552)
(12.602 0.0740922 -8.3322e-05)
(13.021 0.0834284 0.173124)
(12.6893 0.0907045 0.0332117)
(12.7059 0.0361097 -0.00465271)
(13.0037 0.0831703 0.214633)
(12.6218 0.0807168 0.0676402)
(11.5173 1.08703 0.890673)
(11.2739 1.24552 0.879385)
(11.1862 1.30923 0.840934)
(11.3753 1.21868 0.791804)
(11.2422 1.11276 0.751729)
(11.7128 0.950655 0.858215)
(11.5529 0.761393 0.552154)
(11.4298 0.88577 0.679612)
(11.5568 1.27721 1.01711)
(11.4409 0.961806 0.654586)
(11.545 1.07741 0.692317)
(11.8065 1.14974 0.895586)
(11.6353 0.938233 0.598731)
(12.9308 -0.0713597 -0.0725867)
(13.054 -0.031108 -0.0891955)
(12.9506 -0.00726975 -0.0390019)
(12.7702 -0.0352364 -0.0125583)
(12.8002 -0.0147198 -0.0011551)
(12.6626 -0.021732 -0.0412639)
(12.8994 -0.0716503 -0.0386915)
(12.8383 -0.0828717 -0.0136393)
(12.6984 -0.0904956 5.31057e-06)
(13.0449 -0.0367634 -0.103415)
(12.7865 -0.0387428 -0.0315351)
(12.9284 -0.0647683 -0.0583111)
(12.6826 -0.0346423 -0.0159826)
(12.6397 -0.0275659 0.000610822)
(9.98809 -0.0892394 -0.772654)
(9.43288 -0.256642 -0.934581)
(9.27791 -0.07998 -1.02608)
(8.59175 -0.133448 -0.852468)
(8.02878 -0.227688 -0.935056)
(8.43346 -0.106712 -0.912376)
(11.8106 0.395784 -0.642633)
(11.6549 0.250769 -0.48705)
(11.7376 0.226611 -0.45909)
(11.8259 0.272392 -0.493209)
(11.9453 0.29553 -0.497567)
(11.5867 0.203005 -0.204978)
(11.4227 0.324007 -0.144674)
(11.4761 0.316474 -0.115873)
(11.602 0.348395 -0.241044)
(11.8597 0.347685 -0.248358)
(11.7065 0.284973 -0.0610468)
(11.8078 -0.00271138 -0.102142)
(11.8557 -0.0176533 -0.0414633)
(11.8993 -0.0254487 -0.037137)
(12.1182 -0.0502202 -0.0651783)
(12.0415 -0.000538242 -0.121638)
(11.7132 -0.0146036 -0.0594594)
(11.7203 0.0462271 -0.0870155)
(12.0271 0.000262971 -0.134686)
(11.9142 -0.00355736 -0.0849554)
(11.7913 -0.0345732 -0.0247896)
(12.0228 0.00327326 -0.133149)
(11.6831 0.0154354 -0.0945047)
(11.6449 0.0020302 -0.0168691)
(11.6601 -0.00257449 -0.0439533)
(11.8284 0.389924 -0.0320495)
(11.8992 0.405757 0.0082431)
(11.7322 0.384174 -0.0273929)
(12.0696 0.353722 -0.00911099)
(11.93 0.347247 0.0353501)
(11.8374 0.420344 -0.0325642)
(11.92 0.420931 -0.00894621)
(11.8791 0.461931 -0.0565583)
(11.7799 0.447702 -0.0223784)
(12.1705 0.417501 -0.0882641)
(12.2079 0.390046 -0.0771049)
(11.9537 0.418143 -0.0200578)
(11.9318 0.433061 -0.0444517)
(11.9975 0.41492 -0.00651453)
(12.155 0.00254906 -0.27522)
(11.9442 -0.00194785 -0.301345)
(12.3354 -0.056142 -0.273212)
(12.2791 -0.0399853 -0.216964)
(12.2948 -0.0545195 -0.216612)
(12.3595 -0.0603197 -0.285696)
(12.0689 -0.00717386 -0.224801)
(11.9403 0.0227205 -0.263514)
(11.9492 -0.0056118 -0.28165)
(11.8966 -0.0106122 -0.267504)
(12.0659 -0.0264491 -0.291202)
(12.0384 -0.0158753 -0.206892)
(12.0434 -0.00989348 -0.197438)
(11.9194 -9.711e-05 -0.28525)
(11.8661 -0.00714597 -0.268928)
(11.9747 -0.00355365 -0.205495)
(11.9444 0.0180926 -0.262951)
(10.4777 -0.0678603 0.126568)
(10.2227 0.0255315 0.0418621)
(10.3305 0.0277673 0.0383678)
(10.3043 0.0479878 0.0540175)
(10.5469 -0.113006 0.10489)
(10.6941 -0.140792 0.0812066)
(10.6015 -0.215241 0.250123)
(11.7651 -0.164976 0.220053)
(11.8359 -0.251513 0.212442)
(11.7806 -0.221479 0.214405)
(10.5536 -0.0701136 0.143069)
(10.521 -0.15927 0.156676)
(12.0031 0.173291 -0.0810406)
(11.2555 0.111689 0.0227517)
(11.6672 0.0644062 -0.126617)
(11.3847 0.0013967 -0.0538856)
(11.342 0.11044 0.0436117)
(11.5793 0.000443581 -0.0504021)
(11.5052 0.0165504 -0.0531433)
(11.4676 0.108391 0.009892)
(11.9185 0.150309 -0.171496)
(11.8517 0.137545 -0.156365)
(11.9464 0.178663 -0.0807375)
(11.8516 0.135099 -0.160023)
(11.9562 0.169599 -0.0658208)
(12.3056 0.0331858 0.106213)
(12.2387 0.00538277 0.116621)
(12.4299 0.0491647 0.127593)
(12.3707 -0.00170534 0.142496)
(12.339 -0.0157986 0.147464)
(12.267 0.0270451 0.0920727)
(12.2703 -0.00269498 0.105374)
(12.3507 0.0174817 0.11935)
(12.3239 -0.000527712 0.128599)
(12.3419 0.0452348 0.10074)
(12.6984 0.0979674 0.121822)
(12.6242 0.0818793 0.123104)
(12.366 0.0337326 0.0980479)
(12.5643 0.0779161 0.102991)
(12.5481 0.076078 0.0968118)
(9.54005 0.202082 0.0107156)
(9.49683 0.153105 0.0253547)
(9.28476 0.0137534 -0.0663619)
(9.27745 0.00796818 -0.0631325)
(9.41369 0.15018 -0.024435)
(9.57196 0.149815 -0.0222577)
(9.58675 0.185627 -0.0202349)
(9.37524 0.0609261 -0.0253876)
(9.4573 0.0826385 -0.0230642)
(4.6409 -0.126201 -1.04539)
(4.49527 -0.0433841 -0.992334)
(4.52602 -0.325231 -0.956899)
(4.62005 -0.358697 -0.974854)
(4.27051 -0.24685 -0.98113)
(4.17436 -0.0832572 -1.02347)
(4.23383 -0.300801 -1.19039)
(4.27139 -0.474929 -1.04313)
(4.3654 -0.0962084 -1.10273)
(4.40318 -0.404776 -1.19255)
(4.48052 -0.519463 -1.05574)
(4.68419 -0.348016 -1.07464)
(4.67322 -0.472102 -1.03509)
(2.39816 0.270282 0.308083)
(0.616753 0.247523 0.567589)
(0.0930315 -0.0375356 -0.126288)
(1.7087 0.107044 0.0250248)
(1.98137 -0.136715 0.0226989)
(1.76305 -0.25832 0.117355)
(2.07073 0.0907396 0.116778)
(-0.896976 -0.0702618 -0.263598)
(-0.906029 0.396467 0.0260906)
(-0.409476 0.200235 0.275673)
(-0.406211 -0.0725037 0.0185567)
(12.3969 0.108335 0.125568)
(12.5043 0.135504 0.132691)
(12.5119 0.144156 0.121055)
(12.2293 0.171303 0.057014)
(12.1609 0.164267 0.0450871)
(12.2143 0.119069 0.071029)
(12.2323 0.147938 0.0635684)
(12.1586 0.150742 0.0483834)
(12.0846 0.145391 0.0522785)
(12.3772 0.0931268 0.114812)
(12.4204 0.105647 0.099723)
(11.9533 0.0545339 0.0348237)
(11.9326 0.055319 0.0623594)
(11.9759 0.101108 0.0131677)
(12.1276 0.104458 0.0716915)
(11.9032 0.0547304 0.0488539)
(11.8942 0.050765 0.027534)
(-1.17823 -0.133342 -1.07036)
(-0.776538 -0.895303 -0.485855)
(-0.93328 -0.300309 -0.719681)
(-0.75659 -1.37562 -0.105021)
(-2.3558 -0.0958499 -0.212776)
(-2.05014 -0.272653 -0.368705)
(-2.35412 0.172839 -0.494697)
(-0.547664 -1.19317 0.179941)
(-1.45483 -0.444195 -0.434262)
(-1.20725 -0.839289 -0.0915522)
(-1.32864 -0.865295 0.0316877)
(10.9134 0.289328 -0.0083145)
(10.9149 0.290573 -0.0221368)
(10.6897 0.181953 0.00229858)
(10.4411 0.0582873 -0.00155442)
(10.5174 0.217314 -0.0265554)
(10.4031 0.113122 -0.0672142)
(10.383 0.109447 -0.0865653)
(10.3454 0.0817409 -0.00788002)
(10.578 0.167762 0.0473762)
(10.2214 0.0191979 -0.0211516)
(10.5537 0.1727 0.0345071)
(11.4969 0.338785 0.183269)
(11.4805 0.323769 0.150566)
(11.5136 0.357294 0.187393)
(11.4953 0.321131 0.141474)
(11.2969 0.308096 0.0908717)
(11.3595 0.33104 0.131919)
(11.1357 0.40217 0.0560061)
(11.2082 0.401428 0.084862)
(11.3642 0.392208 0.121368)
(11.2429 0.384995 0.0825816)
(11.0461 0.372549 0.00241239)
(11.1113 0.385948 0.025266)
(11.1987 0.301627 0.0619546)
(11.2632 0.32261 0.0801743)
(11.1694 0.332608 0.0562961)
(4.72892 0.0798686 0.183857)
(3.87049 0.0413427 -0.0258977)
(4.07863 0.0536339 -0.121782)
(4.69956 -0.04896 -0.130966)
(3.15334 0.0306408 -0.199663)
(12.2193 -0.0375734 0.54903)
(12.3187 -0.0615136 0.540155)
(12.4412 -0.075319 0.595653)
(12.3707 -0.0678379 0.591257)
(12.7004 -0.115685 0.581358)
(12.6754 -0.128361 0.601287)
(12.489 -0.0763082 0.56471)
(7.9371 2.53649 -0.0771918)
(7.49938 2.70373 -0.588357)
(8.86958 2.30443 -0.337858)
(8.7199 2.57928 -0.506196)
(7.97328 2.99221 -0.149599)
(7.45642 3.03012 -0.685915)
(8.08006 2.27252 -0.0501992)
(7.5743 2.37929 -0.67447)
(8.21808 3.044 -1.33774)
(7.35287 3.10088 -1.40353)
(8.28731 2.15915 -0.148841)
(7.96242 2.16534 -0.744745)
(8.30399 2.71643 -1.24561)
(7.76608 2.67707 -1.07604)
(8.94594 2.21503 -0.342647)
(8.46885 2.4681 -1.17392)
(7.90458 2.42846 -1.01153)
(8.97072 2.26105 -0.544611)
(9.6324 2.09031 -0.379566)
(9.78879 1.92953 -0.452031)
(9.61252 1.97606 -0.676268)
(9.54178 2.0672 -0.769916)
(9.55051 1.78947 -0.664954)
(9.474 2.0961 -0.759132)
(9.57781 1.92893 -0.24823)
(9.50803 2.10186 -0.303461)
(9.44114 2.21651 -0.639114)
(9.02166 2.04083 -0.582272)
(9.33136 1.72241 -0.49556)
(9.30163 1.89496 -0.294371)
(9.01718 2.23606 -0.255997)
(10.2341 3.20059 -1.02691)
(10.5816 2.77109 -0.955252)
(10.9967 2.10159 -0.41094)
(10.9086 1.99882 -0.411903)
(10.3775 2.48608 -0.924192)
(10.6021 2.47645 -0.843426)
(10.7338 2.20855 -0.5635)
(10.7077 2.13573 -0.565538)
(10.4863 3.19475 -0.876793)
(10.816 2.92878 -0.731568)
(9.98845 2.83889 -0.95658)
(10.064 2.93222 -0.943294)
(10.7596 2.63294 -0.34951)
(10.6731 2.43168 -0.321945)
(10.9858 2.36332 -0.40666)
(10.4295 2.1755 -0.637496)
(10.114 2.63677 -0.599945)
(10.1825 2.76454 -0.633781)
(10.4855 2.72713 -0.379087)
(10.4769 2.5884 -0.401912)
(10.4146 2.85567 -0.556502)
(10.3334 2.52111 -0.469912)
(13.0839 -0.0460526 0.272523)
(12.8247 -0.0408348 0.247393)
(12.8986 -0.0873912 0.258223)
(12.8273 -0.0385672 0.256721)
(12.909 -0.087571 0.261309)
(13.1335 -0.0334062 0.286188)
(12.9621 -0.0156924 0.278216)
(13.1506 -0.0713483 0.244658)
(12.9152 -0.0397079 0.252565)
(13.092 -0.0315424 0.280955)
(13.0579 -0.105402 0.24708)
(12.9604 -0.0276791 0.270744)
(13.1354 -0.0887008 0.240281)
(12.9822 -0.0347446 0.265969)
(13.1498 -0.0977485 0.237453)
(13.1311 -0.0548058 0.255085)
(4.82215 -0.222346 -0.213417)
(-1.13502 -0.924576 -0.57467)
(2.42537 1.60388 0.251647)
(2.37347 2.22169 0.191945)
(10.3855 0.913751 -1.66291)
(10.5548 1.05164 -2.00566)
(4.58561 1.79576 -0.453701)
(4.99434 1.46826 -0.282598)
(11.0171 0.55224 -1.42164)
(11.18 0.578939 -1.62554)
(0.103308 0.219526 0.540814)
(6.47656 0.0464945 -0.701146)
(4.62648 0.43176 0.0473212)
(5.32833 1.8775 -0.267448)
(10.3754 1.00626 -1.45624)
(11.1502 0.898999 -1.26981)
(12.5557 0.119582 0.304843)
(12.6088 0.165472 0.294262)
(12.4956 0.119504 0.244172)
(12.4521 0.120954 0.20597)
(12.4167 0.128894 0.215312)
(12.43 0.120063 0.263993)
(12.5509 0.126956 0.257256)
(12.6162 0.138064 0.295019)
(12.5408 0.168817 0.303538)
(12.4987 0.10799 0.30727)
(12.3598 0.137319 0.206035)
(12.3393 0.103178 0.155837)
(12.3951 0.124951 0.225758)
(12.425 0.122821 0.267001)
(12.3525 0.10366 0.148675)
(12.4203 0.109598 0.161524)
(12.5157 0.111752 0.195385)
(12.4621 0.12177 0.208188)
(9.73663 1.75055 -0.182983)
(9.42206 1.67806 0.564375)
(9.33172 2.04972 0.725536)
(9.7092 1.91731 0.0727427)
(9.60376 2.06645 -0.0558441)
(9.21986 2.52184 0.184494)
(8.70852 2.7145 0.147449)
(9.36277 1.71936 -0.179198)
(9.5348 2.07755 0.488306)
(9.00764 1.92712 0.532675)
(8.85742 2.19912 0.56675)
(8.79754 2.67536 0.2719)
(9.29739 2.41112 0.434535)
(9.72313 1.78431 0.270979)
(9.66793 1.61224 0.267911)
(9.62647 1.64874 -0.122639)
(10.5772 0.657932 -0.287602)
(10.6493 0.659746 -0.239367)
(10.6072 0.603973 -0.274575)
(10.6111 0.771363 -0.313114)
(10.7186 0.836643 -0.220289)
(10.5508 0.551332 -0.292272)
(10.4858 0.634974 -0.36069)
(10.5236 0.723721 -0.38922)
(10.5843 0.740407 -0.381901)
(10.5188 0.728882 -0.424038)
(10.5745 0.738319 -0.365004)
(10.647 0.743219 -0.40647)
(10.5943 0.732945 -0.448473)
(10.6988 0.760878 -0.352608)
(10.6398 0.731073 -0.343829)
(10.4903 0.599259 -0.326831)
(10.457 0.629204 -0.383817)
(11.6697 -0.0415378 0.731795)
(11.678 -0.015893 0.703054)
(11.7979 0.133804 0.603394)
(11.801 0.166004 0.618187)
(11.7934 0.175292 0.620976)
(11.7908 0.131223 0.598494)
(11.6857 -0.00537643 0.794449)
(11.6633 0.00302888 0.820918)
(11.795 0.296996 0.741333)
(11.7845 0.386798 0.889076)
(11.6543 -0.000757996 0.658519)
(11.8002 0.136346 0.604683)
(11.8066 0.299527 0.74517)
(11.8054 0.33426 0.826121)
(11.6602 0.0200533 0.626258)
(11.8418 0.298802 0.809201)
(11.7285 0.016073 0.756587)
(10.2517 -1.67553 0.640654)
(10.5887 -1.62152 0.611951)
(10.6954 -1.57495 0.73077)
(10.0617 -1.69203 0.722228)
(10.6659 -1.59426 0.463419)
(9.99548 -1.744 0.654992)
(10.1961 -1.65878 0.203717)
(9.93277 -1.80163 0.236449)
(10.6999 -1.54197 0.509166)
(10.7703 -1.5594 0.613614)
(10.7382 -1.54768 0.740095)
(10.1013 -1.7661 0.681319)
(9.71302 -1.88237 0.141183)
(10.0546 -1.6825 0.176253)
(9.92405 -1.84429 0.125273)
(10.3507 -1.55961 0.221112)
(9.6315 -1.97576 0.200257)
(9.65823 -1.94076 0.170439)
(12.2211 -0.666799 0.319975)
(12.4045 -0.562222 0.355008)
(12.3868 -0.522941 0.333072)
(12.3448 -0.468956 0.172989)
(12.155 -0.578584 0.15462)
(12.4 -0.415028 0.28381)
(12.2002 -0.670551 0.323406)
(12.3268 -0.563984 0.336641)
(12.308 -0.547952 0.322943)
(12.3767 -0.40373 0.283679)
(12.272 -0.499221 0.16562)
(12.2403 -0.570141 0.281618)
(12.2959 -0.459561 0.216794)
(12.1356 -0.691496 0.250323)
(11.9085 -0.940669 0.552581)
(11.9574 -0.882521 0.572431)
(11.8586 -0.820642 0.90841)
(12.1831 -0.648398 0.883994)
(11.869 -0.794996 0.920075)
(11.8431 -0.85111 0.913351)
(11.7059 -0.995547 0.687695)
(11.9814 -0.858375 0.535718)
(12.0573 -0.790226 0.586514)
(11.8021 -0.967454 0.836088)
(11.8121 -0.923142 0.805271)
(11.7508 -0.969094 0.702707)
(11.9805 -0.860362 0.574324)
(12.2464 -0.662755 0.662539)
(12.2463 -0.667459 0.638445)
(11.8124 -0.915193 0.64229)
(12.2057 -0.690169 0.707571)
(11.9207 -0.840607 0.742318)
(10.6505 3.31238 -0.891612)
(11.0215 3.23824 -0.793238)
(11.0137 2.99558 -0.737706)
(10.4318 3.26311 -0.664966)
(10.7435 3.46076 -0.675263)
(11.361 2.95073 -0.450139)
(11.2094 2.58735 -0.408118)
(11.0404 3.39918 -0.112621)
(11.2527 3.22034 -0.0785053)
(10.5891 3.32245 -0.27041)
(11.1119 2.52754 -0.352928)
(11.1015 3.55516 -0.302073)
(11.3991 -0.0359993 0.861374)
(12.0335 -0.0295646 0.855902)
(11.1354 -0.236137 0.802271)
(11.9819 -0.021012 0.837934)
(11.2419 0.0166151 0.869237)
(11.6652 -0.193043 0.739725)
(11.1992 -0.160585 0.778598)
(11.2511 -0.222264 0.733685)
(11.5195 -0.224555 0.762585)
(12.306 -0.0302522 0.70498)
(12.4526 -0.0458441 0.63813)
(12.2762 -0.0758479 0.663675)
(12.0619 -0.154475 0.603525)
(12.2156 -0.150029 0.603944)
(12.4271 -0.0573836 0.633337)
(12.2002 -0.140698 0.592947)
(12.3783 -0.0603496 1.13196)
(12.1965 0.0725933 1.08734)
(12.314 -0.0181703 1.11056)
(12.1903 0.0767838 1.04898)
(11.8631 0.0735584 1.2493)
(11.7569 -0.137057 1.34615)
(11.4156 -0.255698 1.37762)
(11.8561 0.077252 1.35011)
(11.8781 0.0711439 1.22653)
(12.1651 0.084626 1.07499)
(12.2643 0.00481581 1.10661)
(12.2214 -0.174219 1.19081)
(11.4625 -0.280024 1.31705)
(12.1542 -0.141791 1.16303)
(12.0223 -0.295629 1.19897)
(12.0206 -0.269062 1.21496)
(12.4009 0.484942 0.562001)
(12.4664 0.500598 0.584217)
(12.5183 0.430607 0.531635)
(12.3302 0.549171 0.397714)
(12.1302 0.728555 0.526473)
(12.3559 0.301578 0.495548)
(12.2838 0.312396 0.485448)
(12.54 0.594546 0.520875)
(12.4257 0.671189 0.590004)
(12.3684 0.657189 0.419657)
(12.2161 0.742817 0.523643)
(12.3415 0.610933 0.595025)
(12.2811 0.568498 0.567852)
(12.1624 0.532247 0.590739)
(12.2505 0.449975 0.481491)
(12.4301 0.315984 0.498768)
(12.3924 0.375484 0.45926)
(12.3146 0.371244 0.47955)
(12.4305 0.545454 0.462039)
(11.1184 -0.288248 -0.668523)
(11.0757 -0.298222 -0.653682)
(11.432 -0.312963 -0.583326)
(10.7154 -0.315681 -0.678677)
(11.1636 -0.273609 -0.665024)
(10.7826 -0.342993 -0.658819)
(11.0556 -0.355043 -0.665372)
(11.5778 -0.288096 -0.617588)
(11.0149 -0.362876 -0.586816)
(11.7653 -0.329537 -0.495347)
(10.7983 -0.36938 -0.650052)
(11.1592 -0.408628 -0.592042)
(11.2168 -0.419956 -0.512833)
(11.2017 -0.435798 -0.535488)
(9.04597 -0.513522 -0.481376)
(8.98749 -0.501022 -0.476341)
(9.62685 -0.524972 -0.345097)
(9.25723 -0.524278 -0.413929)
(9.32846 -0.515737 -0.40808)
(9.40914 -0.479922 -0.431141)
(10.0329 -0.433851 -0.297472)
(9.80226 -0.454022 -0.503975)
(9.64856 -0.447781 -0.511879)
(10.4815 -0.39898 -0.32492)
(10.321 -0.403325 -0.335393)
(9.21364 -0.494197 -0.547108)
(10.2086 -0.388451 -0.335903)
(9.99916 -0.404588 -0.450776)
(9.99283 -0.394871 -0.437964)
(10.4677 -0.404109 -0.331547)
(10.3674 -0.397284 -0.338232)
(10.068 -0.353369 -0.41097)
(11.6836 1.30798 -0.177198)
(11.2862 1.41128 -0.593458)
(10.9722 1.54145 -0.847451)
(12.3335 0.639179 -0.277802)
(12.2451 0.857524 -0.245715)
(11.6896 1.12879 -0.507579)
(11.898 1.05316 -0.19511)
(12.4499 0.592575 -0.271102)
(12.2804 0.863012 -0.217661)
(11.3024 1.11308 -0.812073)
(11.8316 0.844575 -0.62257)
(4.76306 -0.902716 -0.617174)
(4.97146 -0.971034 -0.573928)
(4.58452 -0.616981 -0.546731)
(4.3304 -0.503491 -0.612037)
(2.85316 0.153503 -0.865729)
(2.09089 0.415475 -0.514072)
(2.22294 0.601716 -0.908489)
(1.72059 0.556578 -0.658877)
(5.28373 -1.05974 -0.733701)
(5.62682 -1.14111 -0.707179)
(4.36997 -0.633073 -0.47936)
(3.30429 0.000220589 -0.570761)
(3.27608 0.162018 -0.605225)
(2.81863 0.121813 -0.403803)
(2.56532 0.381742 -0.510392)
(2.68469 0.261752 -0.435436)
(1.97088 0.433141 -0.666088)
(5.26215 -0.93953 -0.62769)
(4.79418 -0.645131 -0.705426)
(5.18935 -0.861747 -0.640734)
(4.5721 -0.628561 -0.846978)
(13.2917 -0.142669 0.304805)
(13.298 -0.148416 0.275312)
(13.3023 -0.0844492 0.32327)
(13.3227 -0.112391 0.28875)
(13.3013 -0.0943367 0.329045)
(13.2787 -0.148456 0.298694)
(13.2815 -0.145984 0.310442)
(13.288 -0.0762814 0.302943)
(13.2595 -0.0654708 0.328203)
(13.1711 -0.0748012 0.34707)
(13.1794 -0.0906106 0.327579)
(13.1275 -0.0744565 0.354389)
(13.286 -0.0837916 0.296526)
(13.1735 -0.0680323 0.343219)
(13.0951 -0.0621374 0.332169)
(13.195 -0.0755367 0.30997)
(13.1019 -0.0518517 0.332397)
(12.103 0.410031 1.07049)
(11.959 0.424859 1.10319)
(11.6733 0.309001 1.28315)
(11.0256 0.355651 1.32809)
(12.0715 0.39528 1.12955)
(11.9561 0.382778 1.20461)
(10.9683 0.864137 0.754821)
(10.9685 0.708593 0.939628)
(11.7803 0.313262 1.26481)
(11.0164 0.388548 1.28158)
(11.146 0.63911 1.28179)
(8.44485 0.467175 0.648122)
(8.45598 0.592444 0.544285)
(8.2648 0.636175 0.579071)
(6.6903 0.505712 0.471193)
(7.71311 0.454719 0.709159)
(5.728 0.494668 0.504672)
(5.10741 0.499318 0.504256)
(6.33379 0.465946 0.811839)
(7.62482 0.486955 0.802302)
(7.90305 0.506788 0.667128)
(6.19283 0.532268 0.784383)
(6.46363 0.529687 0.682918)
(6.41309 0.538142 0.829321)
(12.2917 -0.334339 -0.290258)
(12.2509 -0.311341 -0.281281)
(12.3487 -0.344773 -0.196113)
(12.3792 -0.343881 -0.195696)
(12.1917 -0.392992 -0.285817)
(12.1985 -0.379087 -0.273429)
(12.166 -0.355687 -0.347347)
(12.141 -0.354152 -0.353842)
(12.3241 -0.311621 -0.19999)
(12.4005 -0.330748 -0.214)
(12.1916 -0.311329 -0.298516)
(12.2155 -0.29743 -0.280194)
(12.4294 -0.335228 -0.180396)
(12.1534 -0.369999 -0.315492)
(12.3763 -0.322006 -0.164292)
(12.3396 -0.318832 -0.187966)
(12.1922 -0.312333 -0.27235)
(12.2335 -0.306368 -0.24558)
(12.3259 -0.316647 -0.18158)
(12.3332 -0.321563 -0.173808)
(12.2982 -0.323629 -0.207466)
(12.2142 -0.337864 -0.264602)
(11.8717 -0.463883 -0.452882)
(12.39 -0.41055 -0.387176)
(11.6426 -0.359482 -0.53804)
(12.44 -0.315443 -0.424803)
(12.4672 -0.418098 -0.385045)
(11.3941 -0.444189 -0.419084)
(11.5853 -0.309159 -0.546502)
(12.4592 -0.307435 -0.423034)
(12.0218 -0.317902 -0.510124)
(11.3754 -0.441536 -0.404423)
(11.9382 -0.406209 -0.349154)
(11.9855 -0.431304 -0.387271)
(11.2169 -0.352432 -0.582175)
(12.4155 -0.317642 -0.433045)
(12.0081 -0.307856 -0.515449)
(11.0882 -0.366776 -0.617885)
(11.6107 -0.325355 -0.616052)
(12.1747 -0.37992 -0.438488)
(12.4512 -0.395123 -0.396272)
(12.4263 -0.381605 -0.417907)
(12.5973 0.476919 0.235638)
(12.4832 0.511545 0.232526)
(12.4863 0.542988 0.302683)
(12.5219 0.530014 0.377597)
(12.5664 0.474124 0.224523)
(12.492 0.503468 0.232922)
(12.4871 0.539906 0.393188)
(12.4246 0.560589 0.333746)
(12.6503 0.463895 0.323633)
(12.6294 0.449943 0.393819)
(12.6628 0.450086 0.356706)
(12.5719 0.466335 0.257179)
(12.5407 0.47086 0.254851)
(12.4771 0.507133 0.242139)
(12.6799 0.44739 0.35832)
(12.6485 0.447454 0.41059)
(12.5851 0.453737 0.350765)
(12.4519 0.508415 0.242581)
(12.3993 0.54692 0.340313)
(12.4441 0.539596 0.417121)
(12.4092 0.525889 0.347441)
(12.4016 0.542094 0.388153)
(11.3077 0.396593 0.933045)
(11.3306 0.483695 0.935386)
(12.3763 0.351612 0.888321)
(12.3146 0.394326 0.854738)
(12.2043 0.344757 0.976294)
(12.0913 0.425402 0.998255)
(12.2314 0.341761 0.933037)
(12.183 0.338953 0.985979)
(11.9702 0.322166 0.959633)
(11.423 0.370067 0.915183)
(11.3387 0.339456 0.875695)
(11.4613 0.385138 0.850787)
(12.153 0.482832 0.886598)
(12.2413 0.412586 0.795061)
(12.3245 0.361006 0.838028)
(11.5938 0.38439 0.891217)
(11.8604 0.427193 0.819008)
(12.3551 0.488049 0.65448)
(12.361 0.575464 0.635201)
(12.6188 0.301624 0.611112)
(12.5879 0.375501 0.566819)
(12.6443 0.319663 0.587307)
(12.7654 0.309684 0.593615)
(12.8068 0.271361 0.563856)
(12.6961 0.439709 0.505218)
(12.662 0.421903 0.516431)
(12.6109 0.527876 0.492154)
(12.6857 0.511294 0.491063)
(12.7973 0.332672 0.559401)
(12.67 0.579689 0.493006)
(12.5862 0.585522 0.487873)
(10.9752 0.804914 -0.445476)
(10.9163 0.738654 -0.295625)
(10.8605 0.690719 -0.291637)
(10.914 0.74341 -0.47296)
(10.8456 0.738721 -0.476139)
(10.9638 0.601143 -0.334952)
(10.9034 0.539545 -0.304287)
(11.002 0.661592 -0.348214)
(10.9575 0.598658 -0.346662)
(10.8835 0.549101 -0.314412)
(13.0549 -0.155458 0.497818)
(13.054 -0.175792 0.496794)
(12.9891 -0.127193 0.54555)
(12.9913 -0.129003 0.51188)
(13.0356 -0.206333 0.520333)
(13.0136 -0.209345 0.528883)
(13.0202 -0.141278 0.517048)
(12.9933 -0.113792 0.526622)
(13.021 -0.204314 0.533967)
(12.9774 -0.103133 0.550949)
(12.9835 -0.129151 0.570612)
(12.9767 -0.107474 0.574293)
(12.9771 -0.090673 0.553214)
(12.9768 -0.168855 0.566669)
(12.9861 -0.0887378 0.553575)
(12.9785 -0.102094 0.569352)
(12.9669 -0.162794 0.562336)
(8.36065 0.0857669 0.170272)
(8.27855 0.0702004 0.212702)
(8.13308 0.125247 0.236777)
(7.51429 -0.118769 0.00250241)
(7.49929 -0.0674582 -0.0661194)
(8.024 0.136399 0.124358)
(8.28256 -0.367934 -0.394818)
(8.3028 -0.306456 -0.363528)
(8.11997 -0.262476 -0.311152)
(7.94043 -0.265235 -0.27984)
(8.21326 0.155389 0.266673)
(8.28756 0.132414 0.195941)
(8.34648 -0.0586361 0.103645)
(8.36573 0.0259531 0.113849)
(7.87651 -0.227711 -0.255849)
(7.89419 -0.138503 -0.229655)
(7.55862 -0.0519352 -0.104322)
(8.17008 0.131088 0.119274)
(8.31789 -0.0894503 0.0610198)
(8.17401 0.013205 0.0115718)
(11.7899 0.00192729 0.491437)
(11.6403 -0.0610187 0.480426)
(11.6336 0.00265364 0.462024)
(11.7512 0.0282578 0.486295)
(11.6241 -0.104095 0.500307)
(11.3355 -0.07431 0.494941)
(11.5591 -0.172238 0.485345)
(11.8058 -0.0161324 0.446796)
(11.7978 0.00513379 0.474835)
(11.7412 -0.0542692 0.476751)
(11.3681 -0.193321 0.427236)
(11.3076 -0.103589 0.492922)
(11.7665 0.0314321 0.476551)
(11.5203 -0.0726873 0.473646)
(11.5289 -0.110522 0.455566)
(11.2723 -0.159883 0.453165)
(3.04975 0.037403 0.544338)
(3.11445 -0.203807 0.723248)
(1.92464 -0.173002 0.930744)
(1.75725 0.110309 0.844911)
(6.05827 -0.502188 0.369998)
(4.34314 -0.424354 0.339173)
(7.5818 -0.188234 0.340555)
(5.33013 0.215897 0.377311)
(2.91166 0.523945 0.959503)
(4.38758 -0.0653313 0.710911)
(7.49325 -0.207921 0.263745)
(5.59092 -0.162399 0.418882)
(4.46326 0.35183 0.345912)
(12.3235 0.0210945 0.949284)
(12.2689 0.120289 1.01547)
(12.3827 -0.00809517 0.918944)
(12.5079 -0.0396246 0.829298)
(12.6755 -0.0539065 0.770727)
(12.5788 -0.0245422 0.860286)
(12.2495 0.139663 1.02762)
(12.3985 0.217816 0.862882)
(12.5396 0.0553844 0.818281)
(12.4831 -0.0155369 0.801515)
(12.7543 0.003522 0.725675)
(12.4211 0.274132 0.819294)
(11.8206 0.365934 -0.158275)
(11.7759 0.273607 -0.181797)
(11.8263 0.237161 -0.197243)
(11.9165 0.3672 -0.135839)
(11.8568 0.31349 -0.133508)
(11.8951 0.288094 -0.153842)
(12.0482 0.347623 -0.17388)
(12.1393 0.354348 -0.190454)
(12.0437 0.260774 -0.184275)
(11.9981 0.249026 -0.181736)
(12.0667 0.567099 -0.27222)
(12.1517 0.560498 -0.27292)
(11.9897 0.512243 -0.285943)
(12.0514 0.50276 -0.270275)
(11.8969 0.505164 -0.28709)
(11.9417 0.426425 -0.206188)
(11.9533 0.339461 -0.144643)
(12.0013 0.517571 -0.260731)
(12.0289 0.400112 -0.184042)
(11.6046 -0.343101 0.267346)
(11.5451 -0.291434 0.333366)
(11.8482 -0.278052 0.210731)
(11.8242 -0.215771 0.263572)
(11.8688 -0.206744 0.286377)
(12.2456 -0.259531 0.356883)
(12.051 -0.264665 0.358101)
(11.7054 -0.278549 0.302974)
(12.0256 -0.331085 0.240728)
(12.7201 -0.202293 0.49495)
(12.7181 -0.223092 0.472735)
(11.8745 -0.274639 0.372932)
(12.7031 -0.281027 0.357515)
(12.4857 -0.287845 0.341173)
(12.6529 -0.220792 0.429854)
(12.8476 -0.21598 0.480942)
(12.8725 -0.207243 0.443741)
(12.5347 -0.282222 0.406998)
(12.8012 -0.211815 0.403431)
(0.30424 1.06471 -0.621129)
(0.31332 0.957251 -0.997248)
(0.947096 0.745629 -0.827548)
(0.816658 0.76127 -0.596582)
(0.664459 0.822122 -0.82216)
(0.659155 0.80105 -0.928716)
(1.54109 0.480696 -0.962416)
(1.8799 0.326992 -1.08234)
(2.05717 0.208156 -0.961348)
(1.95385 0.365823 -1.00758)
(2.62591 0.0566487 -0.877184)
(2.81009 -0.0746352 -1.01387)
(1.84201 0.513006 -0.782665)
(2.53249 0.0635044 -1.00362)
(2.06535 0.431098 -0.830019)
(1.22288 0.643549 -0.939564)
(10.9928 0.48108 -0.329384)
(10.9106 0.450106 -0.258823)
(10.9692 0.454595 -0.340538)
(11.0631 0.515747 -0.409637)
(11.0031 0.512656 -0.690634)
(10.9215 0.506429 -0.684418)
(10.9135 0.457005 -0.32005)
(11.0248 0.525629 -0.555547)
(10.9645 0.535858 -0.680373)
(10.9137 0.505291 -0.690476)
(10.8848 0.379425 -0.390144)
(10.9825 0.440107 -0.50287)
(10.9616 0.524538 -0.507916)
(10.8403 0.390779 -0.394798)
(10.7925 0.392424 -0.403818)
(10.8677 0.484519 -0.530675)