/*--------------------------------*- C++ -*----------------------------------*\
  =========                 |
  \\      /  F ield         | OpenFOAM: The Open Source CFD Toolbox
   \\    /   O peration     | Website:  https://openfoam.org
    \\  /    A nd           | Version:  10
     \\/     M anipulation  |
\*---------------------------------------------------------------------------*/
FoamFile
{
    format      ascii;
    class       volScalarField;
    location    "18";
    object      C;
}
// * * * * * * * * * * * * * * * * * * * * * * * * * * * * * * * * * * * * * //

dimensions      [1 3 0 0 0 0 0];

internalField   nonuniform List<scalar> 
75457
(
0.499998
0.499998
0.499999
0.499999
0.499994
0.499995
0.499999
0.499999
0.499999
0.499999
0.499999
0.499994
0.499994
0.499998
0.499971
0.499975
0.499988
0.49998
0.499978
0.499988
0.499982
0.499985
0.499974
0.499973
0.499985
0.499955
0.499954
0.495389
0.494365
0.495377
0.496105
0.494272
0.49437
0.497317
0.497312
0.497672
0.497351
0.493858
0.494555
0.49755
0.497696
0.497598
0.497667
0.498664
0.498015
0.499251
0.499244
0.498645
0.499972
0.499736
0.499719
0.499966
0.499957
0.49976
0.499861
0.499892
0.499899
0.4999
0.499978
0.499965
0.499942
0.499976
0.5
0.5
0.5
0.5
0.5
0.5
0.5
0.5
0.5
0.5
0.5
0.5
0.5
0.5
0.5
0.353806
0.375783
0.387057
0.358186
0.370632
0.363773
0.374375
0.384595
0.381281
0.401785
0.411239
0.378535
0.384767
0.365021
0.383811
0.375422
0.364058
0.5
0.5
0.5
0.5
0.5
0.5
0.5
0.5
0.5
0.5
0.5
0.5
0.5
0.5
0.5
0.5
0.5
0.5
0.5
0.5
0.5
0.5
0.5
0.5
0.5
0.5
0.5
0.5
0.5
0.5
0.5
0.5
0.5
0.5
0.5
0.5
0.5
0.5
0.5
0.5
0.5
0.5
0.5
0.5
0.5
0.5
0.5
0.5
0.5
0.5
0.5
0.5
0.5
0.5
0.5
0.5
0.5
0.5
0.5
0.5
0.5
0.5
0.5
0.5
0.5
0.5
0.5
0.5
0.5
0.5
0.5
0.5
0.5
0.5
0.5
0.5
0.5
0.5
0.5
0.5
0.5
0.5
0.5
0.5
0.5
0.5
0.5
0.5
0.5
0.5
0.5
0.5
0.5
0.5
0.5
0.5
0.4999
0.499868
0.49985
0.499752
0.499685
0.499722
0.5
0.5
0.5
0.5
0.5
0.5
0.5
0.5
0.5
0.5
0.5
0.5
0.5
0.5
0.5
0.499999
0.5
0.5
0.499999
0.499999
0.5
0.499999
0.5
0.5
0.5
0.5
0.5
0.5
0.5
0.5
0.5
0.5
0.5
0.5
0.5
0.5
0.5
0.5
0.5
0.499992
0.499988
0.499991
0.499995
0.499995
0.49999
0.499996
0.499991
0.499987
0.499993
0.499989
0.499996
0.499997
0.499988
0.499991
0.499996
0.499991
0.497014
0.497203
0.497158
0.49722
0.497969
0.498093
0.498191
0.498747
0.49873
0.498739
0.49696
0.49815
0.499534
0.499662
0.4988
0.499517
0.499669
0.499569
0.499537
0.49968
0.49873
0.49833
0.499538
0.498425
0.499547
0.5
0.5
0.5
0.5
0.5
0.5
0.5
0.5
0.5
0.5
0.5
0.5
0.5
0.5
0.5
0.482489
0.482478
0.480002
0.481105
0.482439
0.482471
0.482475
0.482261
0.482245
0.26494
0.267251
0.2993
0.288612
0.286731
0.27409
0.277948
0.290742
0.264806
0.273398
0.283393
0.265941
0.276862
0.388134
0.223835
0.306102
0.306449
0.292294
0.280492
0.308614
0.317103
0.281353
0.267237
0.285203
0.5
0.5
0.5
0.5
0.5
0.5
0.5
0.5
0.5
0.5
0.5
0.5
0.5
0.5
0.5
0.5
0.5
0.425789
0.428995
0.426299
0.439295
0.415959
0.414466
0.424628
0.385783
0.416581
0.435612
0.403602
0.492582
0.495201
0.495231
0.490961
0.494981
0.482039
0.48197
0.490819
0.495083
0.490664
0.495017
0.499216
0.499594
0.499054
0.499595
0.499594
0.499334
0.499123
0.499093
0.499052
0.499332
0.499373
0.499204
0.499596
0.499636
0.499509
0.406144
0.377244
0.394332
0.371477
0.369249
0.499977
0.499978
0.499937
0.499971
0.49986
0.49986
0.499966
0.5
0.5
0.5
0.5
0.5
0.5
0.5
0.5
0.5
0.5
0.5
0.5
0.5
0.5
0.5
0.5
0.5
0.5
0.5
0.5
0.5
0.5
0.5
0.5
0.5
0.5
0.5
0.5
0.5
0.5
0.5
0.5
0.5
0.5
0.5
0.5
0.5
0.5
0.5
0.5
0.5
0.5
0.5
0.5
0.5
0.5
0.5
0.5
0.5
0.5
0.5
0.5
0.5
0.5
0.499995
0.499994
0.499996
0.499994
0.5
0.499998
0.499999
0.499997
0.5
0.499997
0.499997
0.499998
0.499998
0.499998
0.5
0.499976
0.499849
0.49984
0.499839
0.499974
0.499969
0.499841
0.499845
0.499996
0.499996
0.499881
0.499983
0.49997
0.499894
0.499975
0.499996
0.5
0.5
0.5
0.5
0.5
0.5
0.5
0.5
0.5
0.5
0.5
0.5
0.5
0.5
0.5
0.5
0.5
0.5
0.5
0.5
0.5
0.5
0.5
0.5
0.5
0.5
0.5
0.5
0.5
0.5
0.5
0.5
0.5
0.5
0.5
0.5
0.5
0.5
0.5
0.5
0.5
0.5
0.5
0.5
0.5
0.5
0.5
0.5
0.5
0.5
0.5
0.5
0.5
0.5
0.5
0.5
0.5
0.5
0.5
0.5
0.5
0.5
0.5
0.5
0.5
0.5
0.5
0.5
0.492539
0.492904
0.493288
0.492337
0.491797
0.492221
0.488979
0.489075
0.491845
0.492754
0.493322
0.492327
0.487614
0.488924
0.489275
0.489444
0.489312
0.489386
0.498621
0.499165
0.499239
0.499614
0.499026
0.499585
0.498618
0.499124
0.499168
0.499584
0.499497
0.499113
0.499542
0.498596
0.496479
0.496754
0.496443
0.49746
0.496406
0.496346
0.495658
0.496666
0.496979
0.49592
0.495935
0.495679
0.496607
0.497622
0.497604
0.495749
0.497375
0.496231
0.5
0.5
0.5
0.5
0.5
0.5
0.5
0.5
0.5
0.5
0.5
0.5
0.495609
0.497539
0.49517
0.497417
0.495388
0.496241
0.495634
0.495681
0.495969
0.498073
0.498354
0.498231
0.497661
0.497565
0.498345
0.497656
0.498945
0.498089
0.498709
0.498161
0.496987
0.496595
0.494955
0.497116
0.497148
0.498149
0.498529
0.498356
0.49494
0.4982
0.497807
0.497718
0.5
0.5
0.5
0.5
0.5
0.5
0.5
0.5
0.5
0.5
0.5
0.5
0.5
0.5
0.5
0.5
0.5
0.5
0.5
0.499725
0.499714
0.499811
0.499619
0.499754
0.499666
0.499757
0.499865
0.499738
0.499913
0.499674
0.499815
0.499828
0.499833
0.494946
0.495161
0.496409
0.494749
0.495772
0.496244
0.498241
0.498899
0.498466
0.499554
0.499086
0.497378
0.499424
0.499351
0.499367
0.499543
0.499283
0.499394
0.499993
0.499989
0.499987
0.499998
0.499997
0.499991
0.499995
0.499998
0.499997
0.499989
0.499992
0.465864
0.46604
0.467252
0.466835
0.459484
0.456847
0.45378
0.44688
0.467563
0.468757
0.466485
0.459562
0.458579
0.46063
0.457811
0.458637
0.450352
0.469711
0.4666
0.468976
0.465292
0.49997
0.499972
0.499998
0.499992
0.499998
0.499973
0.499971
0.5
0.5
0.499999
0.499996
0.5
0.5
0.499999
0.5
0.5
0.5
0.497477
0.497054
0.496719
0.495438
0.497561
0.497335
0.494821
0.49494
0.49698
0.495467
0.495521
0.457421
0.457147
0.457123
0.439289
0.454754
0.430287
0.424944
0.441335
0.454995
0.455639
0.438348
0.441047
0.440615
0.499985
0.499984
0.499993
0.499993
0.499981
0.499983
0.499975
0.499975
0.499995
0.499994
0.499983
0.499984
0.499996
0.499979
0.499996
0.499994
0.499985
0.499988
0.499995
0.499996
0.499995
0.499985
0.499971
0.499988
0.499942
0.499987
0.499991
0.49994
0.499933
0.499987
0.49996
0.499938
0.499971
0.499973
0.499883
0.499984
0.499959
0.499848
0.499912
0.499979
0.499991
0.499987
0.499401
0.498613
0.497512
0.497708
0.499426
0.498772
0.49748
0.497045
0.499248
0.499255
0.499343
0.499405
0.499334
0.498754
0.49934
0.499158
0.499266
0.498735
0.497084
0.497441
0.497635
0.497206
0.493333
0.493701
0.49801
0.497615
0.497537
0.496936
0.497581
0.497542
0.496471
0.49364
0.493165
0.494019
0.496885
0.497066
0.497659
0.494078
0.495031
0.499211
0.499206
0.499447
0.499501
0.499555
0.499573
0.49968
0.499569
0.499573
0.49947
0.499496
0.499648
0.499391
0.499337
0.5
0.5
0.5
0.5
0.5
0.5
0.5
0.5
0.5
0.5
0.49983
0.499833
0.499884
0.499896
0.499597
0.49946
0.499879
0.499921
0.499561
0.499868
0.499782
0.499784
0.499885
0.499441
0.499886
0.499777
0.499383
0.499582
0.499583
0.49934
0.499195
0.499171
0.4993
0.499579
0.499575
0.499361
0.499221
0.499359
0.499421
0.499681
0.499611
0.499376
0.499075
0.498797
0.499368
0.499628
0.499404
0.5
0.5
0.5
0.5
0.5
0.5
0.5
0.5
0.5
0.5
0.5
0.5
0.5
0.5
0.5
0.5
0.443621
0.441234
0.445026
0.449185
0.469129
0.460187
0.478215
0.463194
0.458532
0.460982
0.477828
0.463435
0.457215
0.49747
0.497338
0.49768
0.498151
0.498606
0.49825
0.497348
0.498184
0.498518
0.498174
0.498976
0.498286
0.5
0.5
0.5
0.5
0.5
0.5
0.5
0.5
0.5
0.5
0.5
0.5
0.5
0.5
0.5
0.5
0.5
0.5
0.5
0.495619
0.495372
0.497038
0.497021
0.497017
0.497292
0.496813
0.496055
0.497235
0.498726
0.498735
0.496322
0.498735
0.498272
0.498453
0.499047
0.499174
0.498337
0.498942
0.433785
0.435379
0.444188
0.43904
0.435217
0.436945
0.442813
0.447175
0.449166
0.446788
0.457161
0.457067
0.451305
0.453137
0.454526
0.441554
0.5
0.5
0.5
0.5
0.5
0.5
0.5
0.5
0.5
0.5
0.5
0.5
0.5
0.5
0.5
0.5
0.47878
0.461297
0.482779
0.464198
0.478955
0.452109
0.494282
0.485598
0.495906
0.495929
0.494317
0.485039
0.462671
0.445761
0.479116
0.494217
0.494064
0.494244
0.485144
0.456718
0.5
0.5
0.5
0.5
0.5
0.5
0.5
0.5
0.5
0.5
0.5
0.5
0.5
0.5
0.5
0.5
0.5
0.5
0.5
0.5
0.5
0.5
0.5
0.5
0.499999
0.499999
0.5
0.499999
0.499999
0.5
0.499999
0.5
0.499999
0.5
0.499999
0.5
0.5
0.5
0.5
0.5
0.5
0.5
0.5
0.5
0.5
0.499999
0.499999
0.499998
0.499998
0.5
0.5
0.499998
0.499998
0.499999
0.499999
0.5
0.499998
0.499998
0.499999
0.499999
0.5
0.5
0.499999
0.499999
0.499697
0.498651
0.498884
0.499727
0.499616
0.498855
0.498815
0.499422
0.499251
0.499079
0.499739
0.499755
0.499354
0.499439
0.499376
0.49949
0.499997
0.499994
0.499994
0.499992
0.499998
0.499997
0.499992
0.499994
0.499998
0.5
0.5
0.5
0.5
0.5
0.5
0.5
0.5
0.5
0.5
0.5
0.5
0.5
0.5
0.5
0.5
0.5
0.5
0.5
0.5
0.5
0.5
0.5
0.5
0.5
0.5
0.5
0.5
0.5
0.5
0.5
0.5
0.5
0.5
0.5
0.5
0.5
0.5
0.5
0.5
0.5
0.5
0.5
0.5
0.5
0.5
0.5
0.5
0.5
0.5
0.499998
0.499999
0.499999
0.499999
0.499997
0.499989
0.499992
0.499998
0.499997
0.499997
0.499997
0.499992
0.499991
0.499994
0.499987
0.499986
0.499994
0.499993
0.499991
0.499783
0.499862
0.499701
0.499788
0.499763
0.49947
0.499421
0.49976
0.499476
0.499399
0.498661
0.498759
0.498896
0.499179
0.49957
0.499031
0.408925
0.407923
0.407125
0.406504
0.391852
0.396576
0.405974
0.394595
0.400679
0.5
0.5
0.5
0.499995
0.5
0.5
0.5
0.5
0.499995
0.499997
0.499999
0.499996
0.499998
0.499999
0.499991
0.499996
0.499994
0.499999
0.499999
0.499997
0.499991
0.499994
0.499995
0.499999
0.499991
0.499996
0.499999
0.499999
0.5
0.5
0.5
0.5
0.5
0.5
0.5
0.5
0.5
0.5
0.5
0.5
0.5
0.5
0.5
0.5
0.5
0.5
0.5
0.5
0.5
0.5
0.5
0.5
0.5
0.5
0.5
0.5
0.5
0.5
0.5
0.5
0.5
0.5
0.5
0.5
0.5
0.5
0.5
0.5
0.5
0.5
0.5
0.5
0.5
0.5
0.5
0.5
0.5
0.5
0.5
0.5
0.5
0.5
0.5
0.5
0.5
0.5
0.5
0.5
0.5
0.5
0.5
0.5
0.5
0.5
0.5
0.5
0.5
0.5
0.5
0.5
0.5
0.5
0.5
0.5
0.5
0.5
0.5
0.5
0.499971
0.499971
0.499968
0.499971
0.499954
0.499968
0.499972
0.499976
0.499972
0.499959
0.499969
0.499977
0.499982
0.499978
0.499983
0.499981
0.499976
0.499981
0.499985
0.5
0.5
0.5
0.5
0.498692
0.498543
0.499998
0.499996
0.499999
0.499999
0.499999
0.5
0.5
0.498834
0.4976
0.499653
0.499996
0.499999
0.499996
0.499995
0.499639
0.499728
0.499407
0.499735
0.499604
0.499495
0.499463
0.498943
0.499692
0.499686
0.499445
0.499691
0.49913
0.499248
0.498965
0.499682
0.49963
0.499688
0.49929
0.363028
0.37082
0.382028
0.380203
0.368993
0.360091
0.385445
0.390352
0.387102
0.399791
0.396959
0.393822
0.392129
0.39181
0.38062
0.382565
0.5
0.5
0.5
0.5
0.5
0.5
0.5
0.5
0.5
0.5
0.5
0.5
0.5
0.5
0.5
0.5
0.5
0.5
0.5
0.5
0.5
0.5
0.5
0.5
0.5
0.5
0.5
0.5
0.5
0.5
0.5
0.5
0.5
0.5
0.5
0.5
0.5
0.5
0.5
0.5
0.5
0.5
0.5
0.5
0.5
0.5
0.5
0.5
0.5
0.5
0.5
0.5
0.5
0.5
0.5
0.5
0.5
0.5
0.5
0.5
0.5
0.5
0.5
0.5
0.499999
0.499999
0.499999
0.499999
0.499999
0.5
0.5
0.5
0.5
0.5
0.5
0.5
0.5
0.5
0.5
0.5
0.5
0.5
0.5
0.5
0.5
0.5
0.5
0.5
0.5
0.5
0.5
0.5
0.5
0.5
0.5
0.5
0.5
0.5
0.5
0.5
0.5
0.5
0.5
0.5
0.5
0.5
0.5
0.5
0.5
0.5
0.5
0.5
0.5
0.5
0.5
0.5
0.5
0.5
0.5
0.5
0.5
0.5
0.5
0.5
0.5
0.5
0.5
0.5
0.5
0.5
0.5
0.5
0.5
0.5
0.5
0.5
0.5
0.5
0.5
0.5
0.5
0.5
0.5
0.5
0.5
0.5
0.5
0.5
0.5
0.5
0.5
0.5
0.5
0.5
0.5
0.5
0.5
0.5
0.5
0.5
0.5
0.5
0.5
0.5
0.5
0.5
0.5
0.5
0.5
0.5
0.5
0.5
0.5
0.5
0.5
0.5
0.5
0.5
0.5
0.5
0.5
0.5
0.5
0.5
0.5
0.5
0.5
0.5
0.5
0.5
0.5
0.5
0.499997
0.499992
0.499998
0.49998
0.499993
0.499993
0.499984
0.49998
0.499997
0.412194
0.411964
0.413293
0.415315
0.5
0.5
0.5
0.5
0.5
0.5
0.5
0.5
0.5
0.5
0.5
0.5
0.5
0.5
0.5
0.5
0.5
0.5
0.5
0.5
0.5
0.5
0.492084
0.496182
0.496551
0.493047
0.491529
0.496616
0.496731
0.495808
0.488728
0.495579
0.492301
0.491358
0.485262
0.488313
0.495049
0.495918
0.5
0.5
0.499999
0.5
0.499996
0.499997
0.499998
0.499998
0.5
0.499998
0.499998
0.5
0.499999
0.5
0.499997
0.499998
0.5
0.499999
0.499999
0.5
0.499999
0.499999
0.5
0.5
0.5
0.5
0.5
0.5
0.5
0.5
0.5
0.5
0.5
0.5
0.5
0.5
0.5
0.5
0.5
0.5
0.5
0.473369
0.473017
0.472624
0.48033
0.473068
0.472836
0.480739
0.473163
0.474403
0.48017
0.473254
0.464852
0.464071
0.464409
0.463992
0.470671
0.478055
0.478591
0.475175
0.476021
0.478545
0.469982
0.5
0.5
0.5
0.5
0.5
0.5
0.5
0.5
0.5
0.5
0.5
0.5
0.5
0.5
0.5
0.5
0.5
0.5
0.5
0.5
0.5
0.5
0.5
0.5
0.5
0.5
0.5
0.5
0.5
0.5
0.5
0.5
0.5
0.5
0.5
0.5
0.5
0.5
0.5
0.5
0.5
0.5
0.5
0.5
0.5
0.5
0.5
0.5
0.5
0.5
0.447074
0.439059
0.450763
0.440598
0.447159
0.463426
0.456256
0.465295
0.463341
0.474293
0.482381
0.480464
0.462471
0.475283
0.482786
0.472002
0.470834
0.498943
0.498864
0.499777
0.49978
0.499786
0.499808
0.499005
0.49913
0.499045
0.49904
0.499709
0.499579
0.499171
0.499789
0.499466
0.499494
0.499712
0.499614
0.499514
0.499735
0.499734
0.49958
0.495149
0.495343
0.496317
0.495781
0.495581
0.497289
0.497801
0.495722
0.496187
0.498704
0.498448
0.498189
0.497544
0.498365
0.498921
0.498578
0.498198
0.498918
0.454653
0.469762
0.477472
0.474624
0.479054
0.474966
0.452067
0.462011
0.469917
0.463458
0.475992
0.476338
0.468261
0.475016
0.446004
0.462598
0.464061
0.5
0.5
0.5
0.5
0.5
0.5
0.5
0.5
0.5
0.5
0.498661
0.499419
0.498076
0.498062
0.499865
0.499526
0.498556
0.498484
0.49851
0.498617
0.499018
0.499618
0.498736
0.499893
0.499756
0.499026
0.499619
0.499655
0.5
0.5
0.5
0.5
0.5
0.5
0.5
0.5
0.5
0.5
0.5
0.5
0.5
0.499413
0.499413
0.499435
0.499432
0.498582
0.499272
0.499267
0.499326
0.497364
0.49737
0.498556
0.49862
0.498921
0.498566
0.499761
0.499944
0.499379
0.49983
0.499964
0.499827
0.499522
0.499753
0.499909
0.499799
0.499907
0.499748
0.499672
0.499913
0.499523
0.34987
0.358803
0.34849
0.338035
0.355115
0.347307
0.324024
0.353114
0.329862
0.33303
0.30488
0.338886
0.361685
0.35579
0.350604
0.368783
0.364479
0.337995
0.5
0.5
0.5
0.5
0.5
0.5
0.5
0.5
0.5
0.5
0.5
0.5
0.5
0.5
0.5
0.5
0.5
0.5
0.5
0.5
0.5
0.5
0.5
0.5
0.5
0.5
0.5
0.5
0.5
0.5
0.5
0.5
0.428167
0.420646
0.413931
0.416928
0.423908
0.415072
0.410634
0.410986
0.403567
0.408744
0.402678
0.40018
0.397181
0.40651
0.400573
0.387595
0.388323
0.417988
0.5
0.5
0.5
0.5
0.5
0.5
0.5
0.5
0.5
0.5
0.5
0.5
0.5
0.5
0.5
0.5
0.5
0.5
0.5
0.499964
0.499963
0.499981
0.499977
0.499951
0.49995
0.499918
0.499917
0.499933
0.499935
0.49994
0.499949
0.499965
0.499967
0.499921
0.499922
0.499912
0.499944
0.5
0.5
0.5
0.5
0.5
0.5
0.5
0.5
0.5
0.5
0.5
0.5
0.5
0.5
0.5
0.5
0.5
0.5
0.5
0.5
0.5
0.5
0.5
0.5
0.5
0.5
0.5
0.5
0.5
0.5
0.5
0.5
0.5
0.5
0.5
0.5
0.5
0.5
0.5
0.5
0.5
0.5
0.5
0.5
0.5
0.5
0.5
0.5
0.5
0.5
0.5
0.5
0.5
0.5
0.5
0.5
0.5
0.5
0.5
0.5
0.5
0.5
0.5
0.5
0.5
0.5
0.5
0.5
0.5
0.5
0.5
0.5
0.5
0.5
0.5
0.5
0.5
0.5
0.5
0.5
0.499973
0.499974
0.499976
0.499991
0.499988
0.499982
0.499975
0.499983
0.499974
0.499985
0.499992
0.499966
0.499984
0.499988
0.49998
0.499959
0.499957
0.499932
0.499965
0.499939
0.499961
0.499955
0.499926
0.49994
0.499932
0.499959
0.499915
0.499922
0.499987
0.499991
0.499989
0.499973
0.49996
0.5
0.5
0.5
0.5
0.5
0.5
0.5
0.5
0.5
0.5
0.5
0.5
0.5
0.5
0.5
0.495701
0.496035
0.496248
0.496265
0.495187
0.495998
0.494287
0.493305
0.494217
0.5
0.5
0.5
0.5
0.5
0.5
0.5
0.5
0.5
0.5
0.5
0.5
0.5
0.5
0.5
0.5
0.5
0.5
0.5
0.5
0.5
0.5
0.5
0.5
0.5
0.5
0.5
0.5
0.5
0.5
0.5
0.5
0.5
0.5
0.5
0.5
0.5
0.5
0.5
0.5
0.5
0.5
0.5
0.5
0.5
0.5
0.5
0.5
0.5
0.5
0.5
0.5
0.5
0.5
0.5
0.5
0.5
0.5
0.5
0.5
0.5
0.5
0.5
0.5
0.5
0.5
0.5
0.5
0.499624
0.499591
0.499527
0.49957
0.499863
0.499796
0.499865
0.499866
0.499532
0.499931
0.499808
0.499679
0.499752
0.499964
0.499979
0.499832
0.499924
0.499886
0.499953
0.499979
0.499979
0.499975
0.499978
0.499831
0.499979
0.499914
0.499999
0.499999
0.499999
0.499999
0.5
0.5
0.5
0.499997
0.499997
0.499997
0.499997
0.499998
0.499997
0.499999
0.499999
0.499999
0.499999
0.499998
0.5
0.5
0.5
0.5
0.5
0.5
0.5
0.5
0.5
0.5
0.5
0.5
0.5
0.5
0.5
0.5
0.5
0.5
0.5
0.5
0.5
0.5
0.5
0.5
0.5
0.5
0.496236
0.4972
0.497013
0.496191
0.496539
0.497043
0.496696
0.496615
0.496508
0.496152
0.496137
0.496373
0.496134
0.499127
0.499721
0.499794
0.499692
0.499586
0.499115
0.498963
0.49918
0.499784
0.499637
0.49962
0.499598
0.499676
0.499658
0.499644
0.49981
0.499936
0.499907
0.499683
0.499756
0.499943
0.49995
0.499952
0.499952
0.499956
0.499903
0.499909
0.499611
0.49987
0.499911
0.499835
0.499997
0.499999
0.499997
0.499998
0.499998
0.499999
0.499998
0.499994
0.499998
0.499999
0.499998
0.499997
0.499998
0.499995
0.46825
0.467901
0.474583
0.477457
0.470379
0.470443
0.465624
0.46681
0.470454
0.469377
0.465586
0.5
0.5
0.5
0.5
0.5
0.5
0.5
0.5
0.5
0.5
0.5
0.5
0.5
0.5
0.5
0.5
0.5
0.5
0.5
0.5
0.5
0.5
0.5
0.5
0.5
0.5
0.5
0.5
0.5
0.5
0.5
0.5
0.5
0.5
0.5
0.5
0.5
0.5
0.5
0.5
0.5
0.5
0.5
0.5
0.5
0.5
0.5
0.5
0.5
0.5
0.5
0.5
0.5
0.5
0.5
0.5
0.5
0.5
0.5
0.5
0.5
0.5
0.5
0.5
0.5
0.5
0.5
0.5
0.5
0.5
0.5
0.5
0.5
0.5
0.5
0.5
0.5
0.5
0.5
0.5
0.5
0.5
0.5
0.5
0.5
0.5
0.5
0.5
0.5
0.5
0.5
0.5
0.5
0.5
0.5
0.5
0.5
0.5
0.5
0.499928
0.499932
0.499922
0.499923
0.499974
0.499956
0.49997
0.499938
0.499995
0.499995
0.499981
0.499994
0.499989
0.49998
0.499995
0.499995
0.499974
0.499981
0.497423
0.493554
0.497038
0.496529
0.497149
0.494688
0.498475
0.498626
0.494634
0.498544
0.496301
0.493329
0.496416
0.496369
0.496387
0.497134
0.498609
0.496991
0.495757
0.498586
0.493958
0.496436
0.497837
0.498577
0.496568
0.494097
0.494166
0.4998
0.499763
0.499799
0.499847
0.499613
0.493534
0.491379
0.493323
0.497265
0.488968
0.498144
0.490492
0.452781
0.462165
0.479292
0.460581
0.449283
0.483797
0.468852
0.497617
0.46543
0.467518
0.479675
0.475021
0.465792
0.486973
0.482844
0.465169
0.465481
0.485171
0.488489
0.471673
0.474853
0.487573
0.486122
0.472621
0.471071
0.480009
0.5
0.5
0.5
0.5
0.5
0.5
0.5
0.5
0.5
0.5
0.5
0.5
0.5
0.5
0.5
0.5
0.5
0.5
0.5
0.5
0.499991
0.49999
0.499993
0.499995
0.499995
0.499996
0.499994
0.499993
0.499989
0.499992
0.499995
0.499995
0.499995
0.499995
0.499987
0.5
0.499986
0.499983
0.5
0.499999
0.49997
0.499996
0.5
0.499989
0.499985
0.49997
0.5
0.5
0.5
0.5
0.5
0.5
0.490882
0.484917
0.485334
0.471241
0.466184
0.479098
0.481329
0.496287
0.466726
0.481302
0.494142
0.493015
0.4942
0.492731
0.487053
0.497085
0.473566
0.481235
0.497383
0.493095
0.496303
0.498244
0.5
0.5
0.5
0.5
0.5
0.5
0.5
0.5
0.5
0.5
0.5
0.5
0.5
0.5
0.5
0.5
0.5
0.5
0.5
0.5
0.5
0.5
0.5
0.5
0.5
0.5
0.5
0.5
0.5
0.5
0.5
0.5
0.5
0.5
0.5
0.454226
0.443134
0.452786
0.439648
0.4441
0.446774
0.448684
0.462484
0.5
0.499999
0.5
0.5
0.5
0.5
0.5
0.499999
0.5
0.5
0.499999
0.5
0.5
0.5
0.5
0.5
0.5
0.5
0.5
0.5
0.5
0.5
0.5
0.5
0.5
0.5
0.5
0.5
0.5
0.5
0.5
0.5
0.5
0.5
0.5
0.5
0.5
0.5
0.5
0.5
0.5
0.5
0.5
0.5
0.5
0.5
0.5
0.5
0.499953
0.49997
0.499976
0.499986
0.499966
0.499977
0.499984
0.499985
0.499987
0.499988
0.499955
0.499987
0.499988
0.499987
0.499936
0.499956
0.499978
0.499985
0.499985
0.499986
0.499936
0.499985
0.5
0.5
0.5
0.5
0.5
0.5
0.5
0.5
0.5
0.5
0.5
0.5
0.5
0.5
0.5
0.5
0.434145
0.440507
0.440959
0.437136
0.433697
0.431878
0.444506
0.447017
0.445251
0.442383
0.453669
0.452913
0.437241
0.442542
0.439233
0.447318
0.432278
0.429852
0.499874
0.497774
0.498037
0.499192
0.498932
0.498896
0.497134
0.497353
0.499891
0.499891
0.498939
0.498901
0.499381
0.499787
0.49976
0.499738
0.5
0.5
0.5
0.5
0.5
0.5
0.5
0.5
0.5
0.5
0.5
0.5
0.5
0.5
0.5
0.5
0.5
0.5
0.5
0.5
0.499999
0.499999
0.499996
0.499997
0.5
0.5
0.5
0.5
0.499998
0.499998
0.5
0.5
0.5
0.5
0.5
0.5
0.499414
0.499385
0.499456
0.499258
0.499773
0.499246
0.499765
0.49925
0.499764
0.499932
0.499811
0.499906
0.499847
0.499816
0.499753
0.499822
0.499846
0.499656
0.499758
0.499921
0.499841
0.499878
0.499653
0.499745
0.4999
0.49992
0.499711
0.499796
0.499904
0.499999
0.499998
0.499995
0.499997
0.499997
0.499997
0.499998
0.499999
0.499998
0.499999
0.499999
0.499999
0.499998
0.499996
0.499996
0.499999
0.499998
0.499997
0.499973
0.499978
0.499989
0.499987
0.499975
0.499984
0.499969
0.499977
0.49998
0.5
0.5
0.5
0.5
0.5
0.5
0.5
0.5
0.5
0.499998
0.499998
0.5
0.5
0.5
0.5
0.5
0.5
0.5
0.5
0.5
0.5
0.5
0.5
0.5
0.5
0.5
0.5
0.5
0.5
0.5
0.5
0.5
0.5
0.5
0.5
0.5
0.5
0.5
0.5
0.5
0.5
0.5
0.5
0.5
0.5
0.5
0.5
0.5
0.5
0.5
0.5
0.499672
0.49952
0.499446
0.499676
0.499909
0.499909
0.499923
0.499937
0.49957
0.499833
0.499896
0.499862
0.499899
0.499831
0.499878
0.5
0.5
0.5
0.5
0.5
0.5
0.5
0.5
0.5
0.5
0.5
0.5
0.5
0.5
0.5
0.5
0.5
0.488238
0.488146
0.490175
0.490547
0.494684
0.494599
0.491573
0.491125
0.495822
0.496313
0.490269
0.49546
0.496084
0.494322
0.4961
0.495705
0.496002
0.49625
0.496913
0.497411
0.497465
0.496811
0.492568
0.491693
0.484565
0.486488
0.486227
0.481863
0.492866
0.49263
0.491625
0.491335
0.492962
0.489558
0.483679
0.485395
0.485103
0.5
0.5
0.5
0.5
0.5
0.5
0.5
0.5
0.5
0.5
0.5
0.5
0.5
0.5
0.5
0.5
0.499939
0.499922
0.499972
0.499956
0.499938
0.499871
0.499888
0.499891
0.499921
0.499949
0.499956
0.4999
0.499975
0.499967
0.499891
0.499952
0.499951
0.499953
0.5
0.5
0.5
0.5
0.5
0.5
0.5
0.5
0.5
0.5
0.5
0.5
0.5
0.5
0.5
0.5
0.5
0.5
0.5
0.5
0.5
0.5
0.5
0.5
0.5
0.5
0.5
0.5
0.5
0.5
0.5
0.5
0.5
0.5
0.5
0.5
0.5
0.5
0.5
0.5
0.5
0.5
0.5
0.5
0.5
0.5
0.5
0.499949
0.499952
0.499951
0.499957
0.499697
0.49977
0.499814
0.499675
0.499685
0.499925
0.499895
0.49995
0.499954
0.499738
0.499886
0.499903
0.498624
0.49863
0.498043
0.49826
0.498288
0.497231
0.497214
0.495503
0.495536
0.497803
0.496168
0.496143
0.495423
0.5
0.5
0.5
0.5
0.5
0.5
0.5
0.5
0.5
0.5
0.5
0.5
0.5
0.5
0.5
0.499968
0.499978
0.499989
0.499975
0.5
0.5
0.5
0.5
0.5
0.5
0.5
0.5
0.5
0.5
0.499995
0.5
0.5
0.5
0.5
0.5
0.5
0.5
0.5
0.5
0.5
0.5
0.5
0.5
0.5
0.5
0.5
0.5
0.499855
0.499842
0.499779
0.499781
0.49987
0.499895
0.499835
0.499763
0.499751
0.499813
0.499709
0.499663
0.499863
0.499752
0.499658
0.499753
0.499708
0.499605
0.444736
0.439859
0.428571
0.430364
0.445615
0.440411
0.444299
0.423591
0.426304
0.432407
0.429107
0.431371
0.445012
0.440904
0.439399
0.428463
0.422193
0.421123
0.41389
0.428909
0.49998
0.499971
0.49998
0.499977
0.499983
0.497117
0.497095
0.497047
0.497011
0.498318
0.498335
0.498543
0.498628
0.495997
0.496392
0.496487
0.497588
0.498391
0.497754
0.499721
0.499725
0.499922
0.499929
0.499717
0.49972
0.499924
0.499915
0.499933
0.499812
0.49939
0.5
0.5
0.5
0.5
0.5
0.5
0.5
0.5
0.5
0.5
0.5
0.499928
0.499924
0.499932
0.49993
0.499931
0.499927
0.499922
0.499936
0.499924
0.499918
0.499917
0.499913
0.499965
0.499966
0.499938
0.5
0.5
0.5
0.5
0.5
0.5
0.5
0.5
0.5
0.5
0.5
0.5
0.5
0.5
0.5
0.5
0.5
0.5
0.5
0.5
0.5
0.499986
0.499986
0.499989
0.499988
0.49999
0.499993
0.5
0.5
0.5
0.5
0.5
0.5
0.5
0.499998
0.5
0.499999
0.499998
0.5
0.5
0.5
0.5
0.5
0.5
0.5
0.5
0.5
0.5
0.5
0.5
0.5
0.5
0.5
0.5
0.5
0.5
0.5
0.5
0.5
0.5
0.5
0.5
0.5
0.5
0.5
0.5
0.5
0.5
0.5
0.5
0.5
0.5
0.499999
0.499999
0.499999
0.499999
0.499998
0.499997
0.5
0.499997
0.499997
0.5
0.5
0.499997
0.499997
0.5
0.5
0.5
0.5
0.5
0.5
0.5
0.5
0.5
0.5
0.5
0.5
0.499538
0.499463
0.498749
0.499705
0.499398
0.499156
0.499349
0.498778
0.498736
0.499078
0.499288
0.499493
0.499372
0.499701
0.499362
0.5
0.5
0.5
0.5
0.5
0.5
0.5
0.5
0.5
0.5
0.5
0.5
0.5
0.5
0.5
0.5
0.5
0.5
0.499913
0.499886
0.499936
0.499935
0.499944
0.499826
0.499779
0.499812
0.499944
0.499939
0.499886
0.49998
0.499968
0.499813
0.49987
0.499787
0.499791
0.499758
0.499983
0.499968
0.499981
0.5
0.5
0.5
0.5
0.5
0.5
0.5
0.5
0.5
0.5
0.5
0.5
0.5
0.5
0.5
0.5
0.5
0.5
0.5
0.5
0.5
0.5
0.5
0.5
0.5
0.5
0.5
0.5
0.5
0.5
0.5
0.5
0.5
0.5
0.5
0.5
0.5
0.5
0.5
0.5
0.40935
0.343089
0.43199
0.427371
0.351642
0.34035
0.368096
0.4073
0.399121
0.397219
0.389373
0.409129
0.356057
0.378348
0.362082
0.369133
0.380744
0.497872
0.497447
0.497626
0.497912
0.497085
0.49593
0.497003
0.496026
0.497808
0.496672
0.497142
0.495439
0.497264
0.496087
0.495118
0.5
0.5
0.5
0.5
0.5
0.5
0.5
0.5
0.5
0.5
0.5
0.5
0.5
0.5
0.5
0.5
0.5
0.5
0.5
0.5
0.5
0.5
0.5
0.5
0.5
0.5
0.5
0.5
0.5
0.5
0.5
0.5
0.5
0.5
0.5
0.5
0.5
0.5
0.5
0.5
0.5
0.5
0.5
0.5
0.499996
0.498347
0.498479
0.498538
0.499996
0.499639
0.499996
0.499995
0.499961
0.499996
0.499996
0.499996
0.499996
0.499996
0.499996
0.499991
0.499986
0.499986
0.49998
0.499981
0.49999
0.49999
0.499985
0.499995
0.499986
0.499986
0.499994
0.5
0.5
0.5
0.5
0.5
0.5
0.5
0.5
0.5
0.5
0.5
0.5
0.5
0.5
0.5
0.5
0.5
0.5
0.5
0.5
0.5
0.5
0.5
0.5
0.5
0.5
0.5
0.5
0.5
0.5
0.5
0.49999
0.499987
0.499981
0.499982
0.499978
0.499982
0.499989
0.49998
0.499984
0.499979
0.5
0.5
0.5
0.5
0.5
0.5
0.5
0.5
0.5
0.5
0.5
0.5
0.5
0.5
0.5
0.5
0.5
0.5
0.5
0.5
0.5
0.5
0.5
0.5
0.5
0.5
0.5
0.5
0.5
0.5
0.5
0.5
0.5
0.5
0.5
0.5
0.5
0.5
0.5
0.5
0.5
0.5
0.5
0.5
0.5
0.5
0.5
0.5
0.5
0.5
0.5
0.5
0.5
0.5
0.5
0.5
0.5
0.5
0.5
0.5
0.5
0.5
0.5
0.5
0.5
0.5
0.5
0.5
0.5
0.5
0.5
0.5
0.5
0.5
0.5
0.5
0.5
0.5
0.5
0.5
0.5
0.5
0.5
0.5
0.5
0.5
0.5
0.5
0.5
0.5
0.5
0.5
0.5
0.5
0.5
0.5
0.5
0.5
0.5
0.5
0.5
0.5
0.5
0.5
0.5
0.5
0.5
0.5
0.5
0.5
0.5
0.5
0.5
0.5
0.5
0.5
0.5
0.5
0.5
0.5
0.5
0.5
0.5
0.5
0.5
0.5
0.5
0.5
0.5
0.5
0.499998
0.499997
0.499993
0.499993
0.5
0.499997
0.5
0.499999
0.499998
0.5
0.5
0.5
0.5
0.5
0.5
0.5
0.5
0.5
0.5
0.5
0.5
0.5
0.5
0.5
0.5
0.5
0.5
0.5
0.5
0.5
0.5
0.5
0.5
0.5
0.5
0.5
0.5
0.5
0.5
0.5
0.5
0.5
0.5
0.5
0.5
0.5
0.5
0.5
0.5
0.5
0.5
0.5
0.5
0.5
0.5
0.5
0.5
0.5
0.5
0.5
0.5
0.5
0.5
0.5
0.5
0.5
0.5
0.5
0.5
0.5
0.5
0.5
0.5
0.5
0.5
0.5
0.5
0.5
0.5
0.5
0.5
0.5
0.5
0.5
0.5
0.5
0.5
0.5
0.5
0.5
0.5
0.5
0.5
0.5
0.5
0.5
0.5
0.5
0.5
0.5
0.5
0.5
0.5
0.5
0.5
0.5
0.5
0.5
0.5
0.5
0.5
0.5
0.5
0.5
0.5
0.5
0.5
0.5
0.5
0.5
0.5
0.5
0.5
0.5
0.5
0.5
0.499927
0.499932
0.49996
0.499967
0.49994
0.499981
0.499979
0.499953
0.499984
0.499978
0.499959
0.499957
0.499953
0.49994
0.499929
0.499935
0.499983
0.499963
0.499982
0.499982
0.499979
0.499941
0.499963
0.499931
0.499956
0.499964
0.499956
0.499964
0.499965
0.499957
0.499958
0.499966
0.499965
0.499963
0.499955
0.499959
0.499962
0.5
0.5
0.5
0.5
0.5
0.5
0.5
0.5
0.5
0.5
0.5
0.5
0.5
0.5
0.5
0.5
0.5
0.5
0.5
0.499999
0.499999
0.499999
0.499999
0.5
0.5
0.499999
0.499999
0.499999
0.499999
0.499999
0.5
0.5
0.5
0.5
0.5
0.5
0.5
0.5
0.5
0.5
0.5
0.5
0.5
0.5
0.5
0.5
0.5
0.5
0.5
0.5
0.499999
0.499999
0.5
0.5
0.499999
0.499999
0.499998
0.499999
0.499999
0.499998
0.499999
0.499999
0.5
0.5
0.499999
0.499999
0.5
0.499999
0.499999
0.499999
0.5
0.5
0.5
0.5
0.5
0.5
0.5
0.5
0.5
0.5
0.5
0.5
0.5
0.5
0.5
0.5
0.5
0.5
0.5
0.5
0.5
0.5
0.5
0.5
0.5
0.5
0.5
0.5
0.5
0.5
0.5
0.5
0.5
0.5
0.5
0.5
0.5
0.446868
0.446009
0.447494
0.436293
0.433696
0.43428
0.427904
0.428158
0.426813
0.427025
0.43071
0.424908
0.47836
0.477028
0.491657
0.491254
0.466753
0.460716
0.494741
0.494525
0.494914
0.494941
0.495258
0.491746
0.49214
0.492301
0.381467
0.373949
0.395626
0.41635
0.449347
0.446017
0.450739
0.445947
0.45164
0.426514
0.433156
0.448658
0.438982
0.445629
0.432511
0.442533
0.448124
0.442757
0.237555
0.254684
0.295721
0.315902
0.304095
0.258104
0.330507
0.330115
0.324995
0.230342
0.229736
0.224308
0.250033
0.245709
0.245439
0.296315
0.303949
0.238877
0.5
0.5
0.5
0.5
0.5
0.5
0.5
0.5
0.5
0.5
0.5
0.5
0.5
0.5
0.5
0.5
0.499999
0.499999
0.499999
0.499999
0.5
0.499999
0.5
0.5
0.499999
0.499999
0.5
0.5
0.5
0.5
0.5
0.5
0.5
0.5
0.5
0.5
0.5
0.5
0.5
0.5
0.5
0.499999
0.499999
0.5
0.499999
0.499991
0.499994
0.499995
0.499993
0.499991
0.499998
0.499998
0.499996
0.5
0.499997
0.499997
0.499999
0.499999
0.5
0.5
0.5
0.5
0.5
0.5
0.5
0.5
0.5
0.5
0.5
0.5
0.5
0.5
0.5
0.365032
0.368679
0.36462
0.394403
0.394523
0.374551
0.373415
0.392555
0.391348
0.376476
0.399111
0.399074
0.457036
0.465518
0.487004
0.486792
0.464895
0.466235
0.455532
0.478621
0.478854
0.46536
0.455653
0.5
0.5
0.5
0.5
0.5
0.5
0.5
0.5
0.5
0.5
0.5
0.5
0.5
0.5
0.498445
0.496614
0.496771
0.495661
0.487773
0.491429
0.4857
0.496085
0.498249
0.498921
0.493794
0.48801
0.498901
0.494978
0.490542
0.490382
0.486509
0.486545
0.490616
0.494463
0.496124
0.489922
0.496654
0.497508
0.493939
0.492497
0.492525
0.497059
0.495968
0.493331
0.494313
0.495191
0.496434
0.496556
0.497047
0.499031
0.49886
0.498576
0.49891
0.498588
0.498988
0.499134
0.499295
0.499301
0.498592
0.49927
0.498744
0.499003
0.498637
0.496469
0.497374
0.496762
0.495274
0.491891
0.491973
0.495973
0.493344
0.493776
0.436276
0.436315
0.438002
0.411232
0.412935
0.429934
0.400404
0.402057
0.428109
0.430749
0.427845
0.417619
0.497046
0.497281
0.49673
0.496692
0.49577
0.497018
0.495632
0.495521
0.495152
0.496192
0.495292
0.495532
0.495062
0.495467
0.49492
0.494918
0.5
0.5
0.5
0.499999
0.5
0.5
0.5
0.5
0.5
0.5
0.5
0.5
0.5
0.5
0.5
0.5
0.5
0.5
0.488408
0.48893
0.49372
0.405149
0.499988
0.499939
0.499935
0.494151
0.496689
0.431353
0.368597
0.499574
0.486127
0.49999
0.5
0.5
0.5
0.5
0.5
0.5
0.5
0.5
0.5
0.499981
0.5
0.488163
0.5
0.49539
0.499891
0.49986
0.486063
0.486712
0.49708
0.486623
0.486002
0.497262
0.309704
0.394678
0.40733
0.483791
0.497398
0.358498
0.406921
0.499825
0.499825
0.366779
0.403933
0.482158
0.4568
0.201287
0.5
0.499871
0.5
0.499907
0.499949
0.334024
0.5
0.26607
0.428633
0.499727
0.499995
0.499999
0.499999
0.499999
0.437093
0.489162
0.5
0.5
0.404537
0.5
0.5
0.390968
0.499999
0.499998
0.5
0.378872
0.499999
0.5
0.374374
0.5
0.498531
0.5
0.5
0.5
0.5
0.5
0.5
0.499421
0.499999
0.499999
0.5
0.499998
0.5
0.5
0.5
0.5
0.5
0.499997
0.5
0.5
0.483834
0.493563
0.5
0.5
0.5
0.499952
0.5
0.425597
0.499999
0.499998
0.487299
0.426388
0.5
0.499995
0.487763
0.423427
0.499993
0.5
0.5
0.48798
0.5
0.499993
0.499989
0.434373
0.5
0.5
0.5
0.5
0.48709
0.5
0.499879
0.473134
0.5
0.5
0.5
0.5
0.5
0.5
0.5
0.49999
0.5
0.499926
0.5
0.5
0.5
0.499956
0.5
0.5
0.499951
0.5
0.499944
0.5
0.5
0.499941
0.5
0.5
0.5
0.5
0.5
0.5
0.5
0.5
0.5
0.5
0.5
0.5
0.5
0.5
0.5
0.5
0.5
0.5
0.5
0.5
0.5
0.5
0.5
0.5
0.5
0.5
0.5
0.5
0.5
0.5
0.5
0.5
0.5
0.5
0.5
0.5
0.5
0.5
0.5
0.5
0.5
0.5
0.5
0.5
0.5
0.5
0.5
0.5
0.5
0.5
0.5
0.5
0.5
0.5
0.5
0.5
0.5
0.5
0.5
0.5
0.5
0.5
0.5
0.5
0.5
0.5
0.5
0.5
0.5
0.5
0.5
0.5
0.5
0.5
0.5
0.5
0.499999
0.5
0.5
0.5
0.5
0.5
0.5
0.5
0.5
0.5
0.5
0.5
0.5
0.5
0.5
0.5
0.5
0.5
0.5
0.5
0.5
0.5
0.5
0.5
0.5
0.5
0.5
0.5
0.5
0.5
0.5
0.5
0.5
0.5
0.5
0.5
0.5
0.5
0.5
0.5
0.5
0.5
0.5
0.5
0.5
0.5
0.5
0.5
0.5
0.5
0.5
0.5
0.5
0.5
0.49998
0.499999
0.5
0.5
0.5
0.5
0.5
0.5
0.5
0.5
0.5
0.5
0.5
0.5
0.5
0.5
0.498743
0.498577
0.491572
0.5
0.5
0.5
0.5
0.5
0.5
0.5
0.5
0.5
0.499999
0.5
0.499999
0.499993
0.2565
0.261018
0.248524
0.5
0.5
0.5
0.5
0.5
0.5
0.5
0.499998
0.499999
0.499999
0.499999
0.499999
0.499999
0.499999
0.499957
0.499958
0.499973
0.498707
0.49788
0.495958
0.498662
0.497777
0.461208
0.476322
0.439007
0.497126
0.495746
0.495961
0.477287
0.499908
0.440772
0.468393
0.390829
0.375475
0.499901
0.499923
0.5
0.5
0.5
0.5
0.5
0.5
0.5
0.5
0.5
0.416835
0.465666
0.499991
0.499968
0.499991
0.499974
0.499979
0.499989
0.499994
0.499981
0.499962
0.499987
0.499982
0.499959
0.499977
0.452271
0.460694
0.450951
0.498689
0.499399
0.498682
0.499959
0.499971
0.499942
0.49996
0.499945
0.499964