/*--------------------------------*- C++ -*----------------------------------*\
  =========                 |
  \\      /  F ield         | OpenFOAM: The Open Source CFD Toolbox
   \\    /   O peration     | Website:  https://openfoam.org
    \\  /    A nd           | Version:  10
     \\/     M anipulation  |
\*---------------------------------------------------------------------------*/
FoamFile
{
    format      ascii;
    class       volScalarField;
    location    "18";
    object      eff_dif;
}
// * * * * * * * * * * * * * * * * * * * * * * * * * * * * * * * * * * * * * //

dimensions      [0 2 -1 0 0 0 0];

internalField   nonuniform List<scalar> 
75457
(
-0.0352839
-0.0318992
-0.0277909
-0.025286
-0.0205645
-0.0220402
-0.0309922
-0.0307558
-0.0197171
-0.0142344
-0.018175
-0.0197382
-0.0192428
-0.01693
-0.00401929
-0.00447504
-0.00418289
-0.00435615
-0.00481878
-0.00433038
-0.00384247
-0.00449563
-0.00451396
-0.00476195
-0.00455562
-0.00490794
-0.00465844
-0.0013562
-0.00137275
-0.000833741
-0.000448386
-0.000742269
-0.000790236
-0.000908913
-0.000293994
-0.00135239
-0.00126747
-0.00149754
-0.00160462
-0.000559635
-0.000827782
-0.000565648
-0.00105763
-0.00990992
-0.00975224
-0.00884721
-0.00900427
-0.00944148
-0.00539619
-0.00600478
-0.00633152
-0.00572611
-0.00594306
-0.00608589
-0.00640037
-0.00638095
-0.00620335
-0.00640972
-0.00569061
-0.00603216
-0.00585748
-0.00563061
0.0314701
0.0317351
0.031474
0.0318032
0.0320339
0.0320603
0.031716
0.0317548
0.03202
0.0318096
0.0315471
0.0317993
0.031788
0.0314745
0.0316777
-0.00959184
-0.0106881
-0.00894848
-0.0108817
-0.012373
-0.00654929
-0.00683145
-0.00894086
-0.00951371
-0.00933351
-0.00936801
-0.00681574
-0.00809218
-0.00673076
-0.00669941
-0.00777346
-0.00669671
-0.00691826
-0.00707735
-0.00710536
-0.00745083
-0.00704152
-0.00688249
-0.00805602
-0.00728763
0.032038
0.031927
0.0321885
0.0322047
0.0320713
0.0319216
0.0318405
0.0322922
0.0322938
0.0319084
0.0319194
0.0226273
0.0232893
0.0257571
0.0253299
0.0226906
0.0242716
0.0243035
0.0237734
0.0241304
0.0258224
0.0256062
0.0261509
0.0266904
0.0254415
0.0248799
0.0236815
0.0261043
0.0250995
0.0141328
0.0140949
0.0135119
0.0144018
0.0139942
0.0155299
0.0152126
0.0151016
0.0150901
0.00817881
0.00771878
0.00828965
0.0078286
0.00725874
0.00777118
0.00779702
0.00684416
-0.00700402
-0.00704671
-0.00643245
-0.00663394
-0.0070269
-0.00667385
-0.00637913
-0.00588108
-0.00434132
-0.00438233
-0.00593565
-0.00565803
-0.00518613
-0.00589745
-0.00476792
0.0167376
0.0183426
0.018585
0.0179222
0.0183433
0.0146185
0.0160044
0.0175687
0.0165774
0.0175399
0.01486
0.0135421
0.0141347
-0.00939645
-0.00987183
-0.00974061
-0.00995243
-0.00972036
-0.009852
-0.00917467
-0.0098714
-0.00971509
-0.00996009
-0.00994714
-0.00978073
-0.00970642
-0.00982524
-0.00868949
-0.00731692
-0.00981524
-0.00720568
-0.00753222
-0.00911782
0.0125127
0.0132919
0.011944
0.0127128
0.0109083
0.0117142
0.0140893
0.0137993
0.0128894
0.0101117
0.0100821
-0.00765156
-0.00749753
-0.00790978
-0.00786761
-0.0078196
-0.00774653
-0.00758136
-0.00746173
-0.00706482
-0.00789503
-0.00764701
-0.00742356
-0.00778076
-0.00738868
0.00671728
0.00578511
0.00617594
0.00448401
0.00503651
0.00577314
0.00566126
0.00691532
0.00648785
0.0055712
0.00494879
0.00430791
0.00654774
0.00496977
-0.00708537
-0.00716135
-0.00687268
-0.00683845
-0.00713998
-0.007076
-0.00716618
-0.0071201
-0.00731512
-0.0068359
-0.00708246
-0.00656891
-0.00719745
-0.00728047
-0.00702243
-0.00698409
-0.00713764
-0.00947491
-0.00929133
-0.00922816
-0.00921556
-0.0104569
-0.00897541
-0.0088583
-0.00827477
-0.00912817
-0.00960672
-0.00858993
-0.00928906
-0.00927342
-0.0091339
-0.00910198
-0.0092857
-0.008727
-0.0091524
-0.00944145
-0.00917813
-0.00877584
-0.00933475
-0.00905969
-0.00881768
-0.00899529
-0.00414691
-0.00391706
-0.00419941
-0.00367759
-0.00369771
-0.00355776
-0.00336466
-0.00332821
-0.00330138
-0.00376651
-0.00407414
-0.00394393
-0.00322453
-0.00364011
-0.00357859
-0.000582107
-0.00046274
-0.000272592
-0.00051495
-0.000263003
-0.000421021
-0.000704998
-0.000996207
-0.000127322
-2.91716e-05
8.69564e-05
-2.68072e-05
-5.78976e-05
0.000144898
0.000399579
0.000250669
0.000113707
0.000168399
0.000157292
0.000130284
-9.05806e-06
-2.23203e-05
-0.00521157
-0.00558865
-0.00491518
-0.00505082
-0.00522357
-0.00519241
-0.00562712
-0.005645
-0.00592256
-0.00613
-0.00569325
-0.00703754
-0.00715957
-0.00730315
-0.00729047
-0.00723622
-0.00699081
-0.00701062
-0.00738816
-0.00765056
-0.00737457
-0.00762667
-0.00673086
-0.00701561
-0.00720109
-0.00731485
-0.00714338
-0.00725925
-0.0134793
-0.0125778
-0.0122908
-0.0138065
-0.0161083
-0.0152605
-0.0153698
-0.0150617
-0.0146258
-0.0142192
-0.0155123
-0.00423879
-0.00438445
-0.00496906
-0.00477783
-0.0045583
-0.00492203
-0.0046835
-0.00534542
-0.004926
-0.0049267
-0.00435594
-0.000233555
-8.18359e-05
-0.00035803
-0.000416819
-0.000101116
-0.000111242
-0.000424403
-0.000161668
-0.0005509
-0.000560986
-0.000657688
-0.000243432
-0.000457246
-0.000943939
-0.000971358
-0.00603379
-0.00519326
-0.006636
-0.0061019
-0.00591272
-0.00737872
-0.00772097
-0.0073682
-0.00764859
-0.007736
-0.00738678
-0.00811576
0.0502392
0.0550261
0.0436719
0.0462989
0.0490991
0.0511611
0.0508093
0.0536462
0.0462849
0.0506836
0.048913
0.0499269
0.0460575
0.0505072
0.0447618
0.0462661
0.0481715
0.0432172
0.0350518
0.0345978
0.0353733
0.036109
0.0370054
0.0379809
0.0352655
0.0358885
0.0383751
0.04184
0.0385792
0.038774
0.0404655
0.0264177
0.0236477
0.0210813
0.0227101
0.0273014
0.0240081
0.0225581
0.0239635
0.0236287
0.0217339
0.0289851
0.0289626
0.0220853
0.0236222
0.0211047
0.0272859
0.0293974
0.0294574
0.025467
0.0254378
0.0261117
0.0274096
-0.0087896
-0.00914287
-0.00936149
-0.00934591
-0.00944177
-0.00886743
-0.00893325
-0.00905561
-0.00921702
-0.00887844
-0.00929237
-0.00888013
-0.00902006
-0.00897644
-0.00910654
-0.00906797
-0.0242305
-0.0268034
-0.0142933
-0.0224269
-0.0125163
-0.0193374
-0.0169392
-0.0140301
-0.0126925
-0.017448
-0.0310883
-0.0263087
-0.0174202
-0.0239712
-0.0126141
-0.0150528
0.00234479
0.00218592
0.00234904
0.00319752
0.00357414
0.00418492
0.00199365
0.00166199
0.00332897
0.00330246
0.00419189
0.00383999
0.00356358
0.0034864
0.00332442
0.00266494
0.001926
0.0027425
0.0341794
0.0381984
0.0367562
0.0333757
0.0346989
0.0374503
0.0409867
0.040078
0.0349435
0.0409324
0.0426194
0.0408881
0.0370064
0.0337787
0.0345744
0.0356213
0.0272798
0.0266303
0.027132
0.0269049
0.0260599
0.0278426
0.0284177
0.0278003
0.0271691
0.0281077
0.0275494
0.0267318
0.0275848
0.0260093
0.0266923
0.0282203
0.0286978
0.0127034
0.0125565
0.0122693
0.0126385
0.0126276
0.0126784
0.0127679
0.0128472
0.012884
0.0127341
0.0123657
0.0124344
0.0129491
0.0126023
0.0127023
0.012
0.0119993
-0.00519648
-0.00605905
-0.00764377
-0.00674872
-0.005683
-0.00588336
-0.00540197
-0.00549942
-0.00607604
-0.00559552
-0.00732058
-0.0074717
-0.00646288
-0.00458125
-0.00694015
-0.00605725
-0.00613077
-0.00681119
-0.00420615
-0.00425223
-0.00410067
-0.00404806
-0.00354147
-0.00377874
-0.00400734
-0.0040034
-0.00351057
-0.00368006
-0.00380857
-0.00349389
-0.00336404
-0.00378673
-0.00628949
-0.00588659
-0.00676817
-0.00757954
-0.00760381
-0.00699789
-0.00670606
-0.00661739
-0.00649814
-0.00745445
-0.00747657
-0.00731431
-0.00683749
-0.00632503
-0.00661282
-0.0073406
-0.00752801
-0.00765921
0.0217967
0.0175628
0.0183664
0.0251076
0.0214386
0.0155813
0.018495
0.0186401
0.0151405
0.0234796
0.0186441
0.0157817
-0.00839991
-0.00815547
-0.00790723
-0.00780894
-0.00816109
-0.00792535
-0.00662311
-0.00697685
-0.00799578
-0.00799539
-0.0078868
-0.00705189
-0.00699572
-0.00768311
-0.00777641
-0.00760409
-0.00531101
-0.00589138
-0.00486868
-0.00536682
-0.0065613
-0.00639755
-0.00648926
-0.00536099
-0.00511875
-0.00508908
-0.00507499
-0.0059116
-0.00648547
-0.00538648
-0.00494114
-0.00581371
0.00496363
0.00419826
0.00353698
0.00676511
0.0076479
0.00522237
0.00593307
0.00270211
0.00426504
0.00497089
0.00654793
0.00546653
0.00652446
0.00734532
0.00707678
0.00399639
0.00410872
0.00539794
0.00349376
-0.00274262
-0.00178839
-0.00271804
-0.00412826
-0.00321925
-0.00226523
-0.00388846
-0.00345861
-0.00276062
-0.00307414
-0.00267015
-0.0039702
-0.0028531
-0.00244508
-0.00186791
-0.00150508
-0.00150504
-0.00227764
-0.00179471
-0.00200892
-0.00172624
-0.00170736
-0.00226492
-0.00152605
-0.00198632
-0.00183005
-0.00244712
-0.00141634
-0.00148015
-0.00150791
-0.0013414
-0.001875
-0.00351769
-0.00414846
-0.00319882
-0.00180833
-0.00227988
-0.00596966
-0.003452
-0.00310953
-0.00312674
-0.00421277
-0.00565153
-0.00794546
-0.00826458
-0.00827245
-0.00796486
-0.00905983
-0.00936364
-0.00917067
-0.0100989
-0.00745185
-0.00715167
-0.0095313
-0.0104909
-0.0102625
-0.00922233
-0.00900262
-0.0103035
-0.00929491
-0.0089661
-0.00955868
-0.00951856
-0.00857408
-0.00934992
-0.00943112
-0.00913539
-0.00933206
-0.00906761
-0.00928555
-0.00931201
-0.00910948
-0.00892436
-0.00905861
-0.00929023
-0.00906362
-0.00914876
-0.00904509
-0.00917898
-0.0091193
-0.00909566
-0.0069649
-0.00753025
-0.00876229
-0.00856774
-0.00765097
-0.00819527
-0.00862253
-0.00838111
-0.00774759
-0.00846215
-0.00770381
-0.00483022
-0.00555266
-0.00381789
-0.0037054
-0.00401762
-0.00358764
-0.00374631
-0.00291286
-0.00392587
-0.00415913
-0.00378251
-0.00387399
-0.00354521
-0.00294528
-0.00275604
-0.00271426
-0.00303004
-0.0029574
-0.00239542
-0.00289795
-0.00268405
-0.00303846
-0.00300883
-0.00261172
-0.00262956
-0.00274222
-0.00242043
-0.00270417
-0.00253897
-0.00235876
-0.0025997
-0.00228709
-0.00252724
-0.00266117
-0.0023762
-0.00578629
-0.00602743
-0.00589745
-0.00585013
-0.00546728
-0.00492177
-0.00584919
-0.00469377
-0.00547014
-0.00426111
-0.00503893
-0.00543366
-0.00560736
-0.00520876
-0.00498212
-0.00638564
-0.00535614
-0.00481964
-0.00459639
-0.00455654
-0.0068783
-0.00706078
-0.00726256
-0.00720189
-0.00643122
-0.00662854
-0.00757288
-0.00735964
-0.00703378
-0.0063061
-0.00650349
-0.00644141
-0.00625863
-0.0067722
-0.00667396
-0.00708278
-0.00605113
-0.0063464
-0.00680213
-0.00705902
-0.0061682
-0.0064129
-0.00673647
-0.00770833
-0.00657515
-0.00726988
-0.00702786
-0.00835578
-0.00656113
-0.00634531
-0.00648881
-0.00715876
-0.00760285
-0.00703825
-0.00765344
-0.00671894
-0.00660311
-0.00698345
-0.00671004
-0.00619263
-0.00575496
-0.00706058
-0.0063131
-0.0071616
-0.00809848
-0.00752314
-0.00728341
-0.00675631
-0.00680086
-0.0077205
-0.00774818
-0.00838499
-0.00731384
0.0227242
0.0232541
0.0242089
0.0232005
0.0240089
0.02274
0.0237797
0.0226158
0.0231918
0.0241921
-0.00896708
-0.00880076
-0.00853566
-0.008588
-0.00912022
-0.00908378
-0.00861826
-0.00874893
-0.00909747
-0.00848834
-0.00887288
-0.00866677
-0.00863201
-0.00909375
-0.00867765
-0.00894646
-0.00907358
-0.00946851
-0.00892417
-0.00983334
-0.00957561
-0.00931038
-0.00999644
-0.00881375
-0.0096059
-0.0087842
-0.00857979
-0.00957014
-0.0098243
-0.00863471
-0.00962936
-0.00971275
-0.00927602
-0.00893569
-0.00994719
-0.00923643
-0.00925252
0.0121381
0.0125413
0.0132352
0.0126552
0.0123297
0.0134556
0.0100289
0.0116041
0.0118315
0.0114882
0.0107825
0.0128906
0.0123622
0.0128952
0.0120076
0.0115766
-0.0130386
-0.0141885
-0.0131874
-0.0126532
-0.0128109
-0.0107611
-0.0114488
-0.0122996
-0.012864
-0.0134083
-0.00968496
-0.0110543
-0.0122664
-0.0110077
-0.0120666
-0.0100481
-0.00972602
-0.00976214
-0.0108377
-0.0109312
-0.0116125
-0.0098585
-0.00938119
-0.00912413
-0.0102816
0.0128105
0.0117983
0.011436
0.0115139
0.0115569
0.0100737
0.00974519
0.00916172
0.00921627
0.00977677
0.00990479
0.00898702
0.0107463
0.0098501
0.0115575
0.0116608
0.00970842
0.010827
0.0104325
-0.00850799
-0.00850453
-0.00912191
-0.00847908
-0.00998011
-0.00871309
-0.00823646
-0.0088524
-0.0089452
-0.00854978
-0.00843735
-0.00918369
-0.00932289
-0.00983158
-0.009291
-0.00871105
-0.00850064
-0.00947372
-0.00921085
-0.0071141
-0.00825424
-0.00752405
-0.0075097
-0.00728045
-0.00764337
-0.00736611
-0.00697587
-0.00804524
-0.0075537
-0.00756645
-0.00724522
-0.00764787
-0.00762187
-0.00777207
-0.00782079
0.0220445
0.0226142
0.021939
0.0217337
0.023
0.0238821
0.0236314
0.0227222
0.0227526
0.0235846
0.023757
0.0228343
0.023681
0.024231
0.0248984
0.0243425
-0.0110845
-0.0128466
-0.00932296
-0.00906133
-0.0142452
-0.017092
-0.00629071
-0.00729899
-0.00996853
-0.0125442
-0.00943312
-0.0100537
-0.0115154
-0.0168772
-0.0151641
-0.00781029
-0.0127988
-0.00976639
-0.0132896
-0.0156423
0.0585919
0.0526379
0.0483007
0.0479648
0.0570674
0.058366
0.0518733
0.0566808
0.0508622
0.0528585
0.0504389
0.0508816
0.0477009
0.0475662
0.0532848
0.0210007
0.0196975
0.0243164
0.0260185
0.0238612
0.0207901
0.0261402
0.0226974
0.0251455
0.0284092
0.0273565
0.0285829
0.0303043
0.0281316
-0.0141595
-0.0148944
-0.0144436
-0.0151924
-0.0132992
-0.013559
-0.0119258
-0.0107909
-0.0131265
-0.0130744
-0.0112482
-0.0107811
-0.0135886
-0.011865
-0.0115245
-0.0121668
-0.00526597
-0.00499328
-0.00503259
-0.00519444
-0.00500194
-0.00529231
-0.00492878
-0.00526284
-0.00543467
-0.00480636
-0.00486517
-0.00481948
-0.00537168
-0.00519083
-0.00487457
-0.00506429
-0.00501212
-0.00533201
-0.00514587
-0.00965238
-0.00963773
-0.00928431
-0.0100569
-0.0101862
-0.0100139
-0.00929281
-0.0101174
-0.00998999
-0.00851954
-0.00917615
-0.00905127
-0.00942679
-0.00913403
-0.0103341
-0.0100106
-0.00885189
-0.00926823
-0.00901299
-0.00911509
-0.00876412
-0.00883802
-0.00930633
-0.00877508
-0.00887729
0.0309364
0.0301101
0.0301734
0.0306168
0.030789
0.0304
0.0301834
0.0302169
0.0309262
0.0307238
0.0307825
0.0305328
0.0306121
0.030391
0.030708
0.030771
0.0307959
0.0305901
0.0302402
0.030864
-0.00639951
-0.00721556
-0.00633772
-0.00685816
-0.00633916
-0.00602283
-0.00617735
-0.00695413
-0.00595379
-0.00626384
-0.00647716
-0.00666455
-0.00435809
-0.00444873
-0.00406932
-0.003935
-0.00375444
-0.00442068
-0.00441971
-0.00454893
-0.00433168
-0.00391496
-0.00390609
-0.00421443
-0.00423606
-0.00389926
-0.00402991
-0.00396869
-0.00414565
-0.00400186
-0.00321808
-0.00302533
-0.00324583
-0.00302887
-0.00318098
-0.00350234
-0.00357435
-0.00370114
-0.00380058
-0.0030741
-0.00352961
-0.00316755
-0.00381745
-0.0036124
-0.00339271
-0.00323713
-0.00383228
-0.00347904
-0.00316893
-0.00259222
-0.00265019
-0.00289104
-0.00209177
-0.00256368
-0.00232873
-0.00224267
-0.00311357
-0.00262473
-0.00328362
-0.00334875
-0.00243185
-0.00239873
-0.00248108
-0.0032537
-0.00331134
-0.00643783
-0.00649407
-0.0069837
-0.00692658
-0.00699966
-0.00647822
-0.00653991
-0.00722631
-0.00695561
-0.0090546
-0.00882131
-0.00888639
-0.00904646
-0.00919215
-0.00920333
-0.00902629
-0.00929783
-0.00897213
-0.00885919
-0.00918051
-0.00897668
-0.00422917
-0.00407719
-0.00425925
-0.0042575
-0.00415837
-0.0043718
-0.00432088
-0.00451804
-0.00445822
-0.00426698
-0.00474299
-0.00470672
-0.00465536
-0.00475253
-0.00455404
-0.00472449
0.0313645
0.0315753
0.0312987
0.0310401
0.0306916
0.0307674
0.0302895
0.0302313
0.0305028
0.0310376
-0.00696869
-0.0066963
-0.00694029
-0.00670503
-0.00707012
-0.00694299
-0.00719815
-0.00716972
-0.00739902
-0.00737563
-0.00714542
-0.006931
-0.00716288
-0.00756305
-0.00749068
-0.00728209
-0.00719229
-0.00710499
-0.00509739
-0.0053757
-0.00500853
-0.0050836
-0.00502676
-0.00501165
-0.00523182
-0.00503976
-0.00518472
-0.00558924
-0.00534997
-0.00540489
-0.00517019
-0.00535311
-0.00495478
-0.00504221
-0.00523176
-0.00503637
0.00924909
0.00862726
0.00804349
0.00902526
0.00721934
0.0066482
0.0096617
0.00912968
0.00780685
0.00934799
0.00836832
0.00744573
0.00822172
0.00825708
0.0312039
0.0311018
0.0309822
0.0308086
0.0312566
0.0308509
0.0306707
0.0307047
0.031011
0.0308281
0.030999
0.0311235
0.0306982
0.0306642
0.0305531
0.0305952
0.0309735
0.0307689
0.0309146
0.0306831
0.0437024
0.0423444
0.0355
0.0386017
0.0281433
0.0324883
0.0179694
0.0337242
0.0336815
0.0310551
0.0367905
0.0269238
0.0385881
0.0437487
0.0395319
0.0470434
0.0286541
0.0398998
0.0354034
-0.00854446
-0.00908302
-0.00547584
-0.00412226
-0.00983948
-0.012196
-0.0117048
-0.0140931
-0.00512315
-0.00532653
-0.0160584
-0.0125271
-0.0071355
-0.0114098
-0.0130027
-0.00810263
-0.0083579
-0.0132559
-0.0103587
-0.0103248
-0.00123108
-0.00183591
-0.0017786
-0.0018308
-0.00222876
-0.00140328
-0.00270915
-0.00203072
-0.00200681
-0.0019982
-0.00196301
-0.00183268
-0.00266567
-0.00172137
-0.00274438
-0.00263562
-0.0024333
-0.00242842
-0.0016861
-0.0142298
-0.0142075
-0.0149589
-0.0144556
-0.0148825
-0.0157735
-0.0130022
-0.0137976
-0.0146597
-0.0120658
-0.0130338
-0.0135199
-0.0138497
-0.0141334
-0.0139874
-0.014515
0.0328686
0.0328193
0.0326861
0.0327625
0.0330353
0.0330525
0.0329295
0.0329582
0.0327683
0.0326326
0.0331522
0.0329282
0.0330926
0.0330875
0.0327119
0.0326342
0.032802
0.0329727
0.0331038
0.0326991
0.000266524
0.000114558
0.000683068
0.00110359
-0.00185957
-0.00194865
-0.00238417
-0.00325085
-0.00113137
0.000277194
0.000656695
-0.00186503
-0.00221318
-0.00274753
-0.00348286
-0.00336509
-0.00102096
-0.00285866
-0.00260698
-0.00153859
0.0330562
0.0329498
0.0330331
0.0330761
0.0330654
0.0330803
0.0330027
0.0331356
0.0331984
0.0332038
0.0332701
0.0329818
0.033151
0.0331154
0.0332278
0.0332099
0.0330973
-0.00527408
-0.00529968
-0.00536203
-0.00565752
-0.00559111
-0.00535438
-0.00511223
-0.00540004
-0.00552378
-0.00585334
-0.00514927
-0.00471801
0.0311664
0.0309815
0.0315284
0.0315301
0.0312885
0.0312322
0.0308977
0.0311114
0.0313292
0.0314945
0.0315338
0.0311641
0.0310065
0.0311235
0.0309203
0.0311229
0.0309209
0.0311835
0.0312499
0.0309102
0.031152
0.0247817
0.0243452
0.0244419
0.024857
0.0248921
0.024058
0.0244422
0.0260815
0.02625
0.026036
0.0253494
0.0249886
0.0246266
0.0245655
0.0245897
0.0252798
0.0251657
0.0251738
0.00985594
0.0101129
0.0101986
0.0097835
0.0100432
0.0107486
0.0103922
0.010435
0.0101772
0.0113367
0.0111697
0.0114152
0.0112472
0.0103156
0.010045
0.0511149
0.0460439
0.0402181
0.0416399
0.0479766
0.0460651
0.0575199
0.0428953
0.0497543
0.044652
0.0570876
0.0568889
0.0526092
0.0458753
-0.000808331
-0.00048089
-0.00100877
-0.00153835
-0.00147668
-0.00169475
-0.000854731
-0.00102788
-0.00114372
-0.000887998
-0.00162236
-0.00128202
-0.000958315
-0.00044485
-0.000616624
-0.00109004
0.0267198
0.0246663
0.0263029
0.0245052
0.0241712
0.0245594
0.0248833
0.0249372
0.0257903
0.0261942
0.028647
0.0281375
0.027159
0.0294683
0.0300546
0.0274745
0.0285073
0.0323466
0.0323087
0.0319085
0.0320064
0.0321109
0.0321607
0.0323812
0.0324172
0.0318761
0.031992
0.0323279
0.0323571
0.0323121
0.0321927
0.0321481
0.0323144
0.0321217
-0.0109164
-0.0086484
-0.00870026
-0.0117697
-0.00778553
-0.0129895
-0.0182984
-0.0079309
-0.010549
-0.0114314
-0.0104991
-0.0100536
-0.0110164
-0.00831323
-0.0156566
-0.0156121
-0.0127764
-0.0137874
0.0195316
0.0191912
0.0207917
0.0204651
0.0197672
0.0184666
0.0188705
0.0204132
0.0208912
0.0204971
0.0202526
0.0205554
0.0188872
0.0186385
0.0180023
0.0197897
0.018675
0.0192928
0.0182583
0.0197595
0.0190633
0.0188305
-0.00458921
-0.00495171
-0.0046843
-0.00438767
-0.00409402
-0.00420242
-0.00300294
-0.00343223
-0.00415405
-0.00491545
-0.00427426
-0.00448921
-0.00355497
-0.00359619
-0.00349888
-0.00342542
-0.00428862
-0.00482731
-0.00424435
-0.00427395
-0.00471099
-0.00457621
-0.00440617
-0.00467328
-0.00491405
-0.00470108
-0.00484456
-0.0040896
-0.00413671
-0.00405473
-0.00420541
-0.0041939
-0.0048398
-0.00477014
-0.00476893
-0.00448661
-0.00411097
-0.00458206
-0.00485724
-0.00470452
-0.00476206
-0.00492259
-0.0051455
-0.00518102
-0.00469517
-0.00504632
-0.00470808
-0.00484873
-0.00460385
-0.00505184
-0.00428857
-0.00460453
-0.00440507
-0.00511266
-0.00475734
-0.00440924
-0.00511238
-0.00643067
-0.00677978
-0.0065802
-0.00809749
-0.00540679
-0.00396818
-0.00734546
-0.00725268
-0.0019863
-0.0027731
-0.000423358
-0.00417448
-0.00160323
-0.00436141
-0.00376206
-0.00580006
-0.00533881
-0.0035686
-0.00307616
0.00036449
-0.00185053
-0.000322555
0.00793064
0.00632044
0.00565709
0.00614042
0.00674057
0.00832477
0.00820534
0.00716586
0.00644581
0.00561037
0.00600709
0.00615096
0.00579463
0.00682959
0.00668944
0.00776961
0.00655711
0.0058203
0.0064725
-0.00735165
-0.00691842
-0.00713579
-0.00717042
-0.00728966
-0.0073461
-0.00751823
-0.00781948
-0.00734783
-0.0079032
-0.00741222
-0.00726069
-0.00729303
-0.00722608
-0.00727996
-0.00725702
-0.00729673
-0.00330184
-0.0035002
-0.00492179
-0.00442698
-0.00422474
-0.00449066
-0.00470598
-0.00438482
-0.00377578
-0.00458683
-0.00397639
-0.00459943
-0.00426643
-0.00432788
-0.00480029
-0.00549819
-0.0056539
-0.00597757
-0.00453507
-0.00525763
-0.00442066
-0.00545558
-0.00512224
-0.00533133
-0.00539382
-0.00394656
-0.00521091
-0.00509681
-0.00478548
-0.00455382
-0.00565694
-0.000219215
-0.000495547
-0.000221987
-4.22955e-05
-0.000153726
-0.000260323
-0.000340731
-0.00037451
-3.39289e-05
-0.000220707
-0.000473415
-0.000438639
-0.000652732
-0.000625204
-0.000170032
-0.000331666
-0.000720012
-0.000626026
-0.000641908
-0.000603147
-0.00028449
-8.45968e-05
-0.000758004
-0.000119585
-0.000328338
-0.000287239
-0.000590381
-0.000712356
-0.000345443
-0.000452139
-0.000302731
-6.44175e-05
-8.87301e-05
-0.000384008
-0.000747643
-0.000367139
-0.000343294
-0.000723287
-0.000146177
-0.000355929
-0.0115139
-0.0125632
-0.0152533
-0.0160391
-0.0158262
-0.0165735
-0.0125827
-0.0135455
-0.0141408
-0.0101535
-0.0122988
-0.0128661
-0.015056
-0.0142801
-0.0144065
-0.0128936
-0.0126673
0.000913521
0.00092258
0.000523886
0.00181992
0.00116862
0.000291303
2.17588e-05
0.00188997
0.00159677
0.000632699
-0.00896933
-0.00887646
-0.00925682
-0.00950669
-0.00867424
-0.00862944
-0.0091123
-0.00947705
-0.0094952
-0.00917435
-0.00893616
-0.00876154
-0.00864676
-0.00870894
-0.00855237
-0.00901764
-0.00876619
-0.00894104
-0.00713052
-0.00713298
-0.00725101
-0.00695734
-0.00734126
-0.00696685
-0.00713861
-0.00689593
-0.00659866
-0.00665181
-0.00736567
-0.00745072
-0.00713292
-0.000755508
-0.000434751
-0.000903385
-0.000546607
-0.00109527
-0.00134383
-0.000980975
-0.000341058
-0.00030794
-0.000797435
-0.0011498
-0.000968505
-0.000280176
-0.000223015
-0.00820423
-0.0081572
-0.00855515
-0.00835481
-0.00822997
-0.00825077
-0.00854196
-0.00840462
-0.0083929
-0.00850455
-0.00849851
-0.00873609
-0.0085658
-0.0083036
-0.00901508
-0.0194773
-0.018803
-0.0185243
-0.0182582
-0.0176579
-0.0171747
-0.020177
-0.0192646
-0.0191074
-0.019608
-0.020168
-0.0198506
-0.0181348
-0.0179919
-0.0183636
-0.0185853
-0.0188053
-0.019389
0.0319156
0.0319116
0.0321687
0.0315129
0.0316278
0.0315891
0.0316977
0.0315176
0.0318397
0.0318168
-0.00747815
-0.00753599
-0.00752398
-0.00776122
-0.00743004
-0.00774132
-0.00740182
-0.00748835
-0.00729326
-0.00737764
-0.0074096
-0.00769423
-0.00776477
-0.00752853
-0.00778359
-0.0074022
-0.00752041
-0.00756823
-0.0073713
-0.00754221
-0.00760958
-0.00755281
-0.00462871
-0.00446648
-0.0047307
-0.00462604
-0.00418896
-0.00407193
-0.00433131
-0.00439513
-0.00431683
-0.00411659
-0.00402016
-0.00403556
-0.00425133
-0.00433713
-0.00417978
-0.00418834
-0.0041381
-0.0041708
0.0335842
0.0345516
0.0358215
0.0345167
0.0330844
0.0355686
0.0337511
0.0346964
0.0310066
0.0328653
0.0344389
0.0316211
0.0319526
0.0307096
0.0294302
0.032536
0.0303398
0.029208
0.0302828
0.0338084
0.0316417
0.0306875
0.0280904
0.0334149
0.0341197
0.0355642
0.0350004
0.039444
0.0386751
0.0358798
0.0384781
0.0316709
0.0309264
0.039282
0.040304
0.0368927
0.0396115
0.0329358
0.03305
0.0331082
0.0329205
0.0330244
0.0329192
0.0330934
0.0330475
0.0328969
0.0330223
0.0328441
0.0328818
0.0330984
0.0330387
0.0330406
0.0330954
0.0325075
0.0283562
0.0279362
0.0302996
0.0314034
0.0332421
0.0311672
0.0312511
0.0275731
0.0268986
0.0316206
0.0294346
0.0310162
0.0282563
0.0303645
0.0280912
0.0278329
0.029157
0.0297385
0.0285801
0.0292635
0.0304022
0.0302468
0.0295093
0.0287781
0.0304172
0.0308287
0.0303309
0.0250184
0.0245606
0.0268087
0.0281716
0.0162879
0.0152739
0.0253803
0.0252153
0.0160172
0.0182354
0.0207955
0.0207008
0.0224217
0.019906
0.017446
0.0153464
0.0307806
0.0299378
0.0302977
0.0308117
0.0300131
0.0313363
0.0309331
0.030135
0.0301541
0.0330019
0.0325699
0.0322519
0.0317002
0.0305781
0.0317119
0.0311481
0.0322101
0.0315958
0.0309389
0.0324907
0.0105968
0.0124299
0.00712738
0.00419455
0.00537127
0.00821331
0.0155845
0.00723401
0.0111046
0.0110639
0.00478948
0.00980185
0.0105383
0.00743262
0.0104049
0.0170186
0.0170954
0.0155526
0.0135862
0.0119208
0.0208804
0.0180046
0.0180879
0.0152729
0.0192306
0.0192948
0.019337
0.0166942
0.0152497
0.0163144
0.0164332
0.017211
0.0175257
0.0322557
0.0322998
0.0321154
0.0320101
0.0326683
0.0326392
0.0322195
0.0320615
0.0328174
0.0328277
0.0322738
0.0325564
0.0328097
0.0327771
0.032675
-0.00956586
-0.00932132
-0.00978162
-0.00971875
-0.0102009
-0.0091506
-0.00904792
-0.0108856
-0.0105081
0.0345324
0.0336587
0.0326479
0.0325903
0.0333337
0.032706
0.0349426
0.0324017
0.036165
0.0347198
0.0325083
0.0343664
0.0350071
0.0353723
0.0358353
0.031617
0.0319243
0.0337057
0.035877
0.0345468
0.0321115
0.0329891
0.00686256
0.00756342
0.00688596
0.00498828
0.00600401
0.00690007
0.00377616
0.00501681
0.00532733
0.00321302
0.00441437
0.00244862
0.00325576
0.00214842
0.00171195
0.00253039
0.00375391
0.00531958
0.00139728
0.00421259
0.0310633
0.0293684
0.0341157
0.0295601
0.0314602
0.0378682
0.0351212
0.0313093
0.0350455
0.0306635
0.033126
0.0390062
0.0368333
0.0375524
0.0409668
0.0342871
0.0335347
0.0318082
0.0362922
0.0302731
0.0334662
0.031165
0.0350926
0.0395005
0.0403975
0.0385221
-0.00746444
-0.00838365
-0.00789294
-0.00748232
-0.0076555
-0.008267
-0.00790016
-0.00752286
-0.0088096
-0.00742677
-0.00766859
-0.0082721
-0.00756592
-0.00730728
-0.00719909
-0.00749228
-0.00751731
-0.00824619
-0.00771118
-0.00710315
-0.0071343
-0.00712448
-0.00706574
-0.00757112
-0.00719658
-0.00752338
-0.00467587
-0.00443968
-0.00511048
-0.00556765
-0.00458598
-0.00481866
-0.00450785
-0.00337579
-0.00524815
-0.0026989
-0.00520026
-0.00410994
-0.0036102
-0.0043198
-0.00520886
-0.00515572
-0.00454194
-0.00440276
0.012927
0.0124257
0.00897615
0.0110066
0.00962521
0.00765681
0.00439715
0.00912096
0.00938442
0.00696362
0.00204682
0.00582472
0.00722378
0.0283705
0.0291574
0.0295002
0.0281293
0.0297916
0.0295695
0.029955
0.0290876
0.029221
0.0282041
0.028395
0.0302833
0.0296458
-0.0109871
-0.0108236
-0.0118225
-0.0111668
-0.0111862
-0.0118595
-0.0131307
-0.0125824
-0.0141206
-0.0119462
-0.0121169
-0.011743
-0.0131811
-0.0101129
-0.00876758
-0.00857024
-0.00904606
-0.00936105
-0.00976325
-0.00974259
-0.009973
-0.0087433
-0.00880596
-0.00933114
-0.00873253
-0.00833478
-0.00893334
-0.00883461
-0.00792929
-0.00756769
-0.00780264
-0.00790465
-0.00791114
-0.00771873
-0.00758159
-0.00760353
-0.00736288
-0.00769042
-0.00770967
-0.00792185
-0.00789376
-0.00781598
-0.00746089
-0.00762578
-0.0079974
-0.00765218
-0.00769725
-0.00756387
-0.00760482
-0.00749737
-0.00751337
-0.00787637
-0.00760343
-0.00750957
-0.00767949
-0.00766191
-0.00764194
-0.00819013
-0.00538626
-0.00663678
-0.00666049
-0.00533632
-0.00605722
-0.00633272
-0.00706417
-0.0051998
-0.00513802
-0.00567189
-0.00580577
0.0258721
0.027479
0.0265622
0.0276795
0.026928
0.0278417
0.026945
0.0261853
0.0272899
0.0264016
0.0278112
0.025575
0.0271208
0.0358976
0.03875
0.04106
0.049377
0.0471691
0.0356751
0.0527572
0.0519551
0.0390762
0.0447547
0.0372717
0.0394839
0.0476633
0.0515743
0.0543827
0.0427751
0.0446245
0.0412767
0.0510116
0.0489777
0.0471905
0.0441889
0.0366517
0.036659
0.0366218
0.0353312
0.035047
0.0337773
0.0341833
0.0347069
0.0339637
0.0329784
0.0330663
0.0228221
0.0221539
0.0218435
0.0214366
0.0239511
0.0234383
0.0216997
0.0231405
0.022301
0.0213706
0.020586
0.0208729
0.0226232
0.0240303
0.0242177
0.0213846
0.0208321
0.0231757
0.0202677
0.0344171
0.0347074
0.0345854
0.0345789
0.0353237
0.0351565
0.0349388
0.0347617
0.0347593
0.0351627
0.0359238
0.0356217
0.0360581
-0.00622602
-0.00209407
0.000335042
-0.00353786
-0.00152502
0.0022544
0.00207322
0.00271322
0.00352186
-0.000978405
0.00135338
-0.00629924
-0.00957055
-0.0010319
0.00228034
-0.00416188
-0.0018234
-0.00996224
-0.00507798
-0.0107156
-0.00374726
-0.00741062
-0.00725545
-0.00730821
-0.00742832
-0.00706352
-0.0072122
-0.00725595
-0.00763508
-0.00719802
-0.00702496
-0.00755036
-0.00731597
-0.00720562
-0.00718944
-0.00721724
-0.00721706
-0.0068767
-0.00714907
-0.00888763
-0.0102019
-0.0081486
-0.00820141
-0.00777853
-0.00948706
-0.00844721
-0.0084657
-0.00806084
-0.00845737
-0.00955102
-0.0115736
-0.0091958
-0.00900398
-0.00803107
-0.00625866
-0.0076895
-0.00731629
-0.00669442
-0.00796373
-0.00946566
-0.00738122
-0.00581585
-0.00668169
-0.00615559
-0.00794221
-0.00660068
-0.0032346
-0.00367185
-0.00391193
-0.00378976
-0.00418331
-0.0115279
-0.0136454
-0.01228
-0.0136291
-0.0181676
-0.0114869
-0.0153062
-0.018662
-0.0179868
-0.0224841
-0.023947
-0.0204715
-0.019926
-0.0207045
-0.015833
-0.00257661
-0.00279954
-0.00273592
-0.0036489
-0.00340117
-0.00308871
-0.0033138
-0.00309826
-0.00323103
-0.00232001
-0.00184308
-0.00340047
-0.00313028
-0.00243883
-0.00128134
-0.00243538
-0.00322379
-0.00264835
0.0188255
0.0168434
0.0128302
0.0198497
0.00698203
-0.0034076
0.0191147
0.00941518
0.0181145
0.0121185
0.0135094
-0.016301
-0.00846052
-0.026961
0.00744305
0.00693236
0.00391047
-0.00579961
0.00112077
0.00615475
-0.0174339
-0.0170146
-0.0170806
-0.0155478
-0.0159418
-0.0147945
-0.0146645
-0.0144782
-0.0158921
-0.0161121
-0.0140831
-0.0147585
-0.0152728
-0.0143516
-0.0100822
-0.00838111
-0.00911371
-0.0108548
-0.00652464
-0.00723887
-0.00867757
-0.0109867
-0.00849182
-0.00808497
-0.0108739
-0.0096609
-0.00577391
-0.00646517
-0.00572397
-0.00631257
-0.00637766
-0.00665171
-0.00459822
-0.00563804
-0.00478999
-0.00738548
-0.0107993
-0.0060275
-0.0118718
-0.0100181
-0.0118818
-0.0111897
-0.0016645
-0.00219999
-0.00199823
-0.00403817
-0.00625676
-0.00679295
-0.0086346
-0.00873785
-0.00332672
-0.0063941
-0.00382017
-0.00396645
-0.000217986
-0.00187276
-0.00215553
-0.00187199
0.00159673
0.00133475
0.000351875
0.00336868
0.00340299
-0.000105773
-0.00237577
0.000469818
0.00158028
0.00315881
0.00371703
-0.000801618
0.00161632
0.001316
-0.000177143
0.00100581
0.0141772
0.0148013
0.0118815
0.0123023
0.0148593
0.0130172
0.0125401
0.013141