/*--------------------------------*- C++ -*----------------------------------*\
  =========                 |
  \\      /  F ield         | OpenFOAM: The Open Source CFD Toolbox
   \\    /   O peration     | Website:  https://openfoam.org
    \\  /    A nd           | Version:  10
     \\/     M anipulation  |
\*---------------------------------------------------------------------------*/
FoamFile
{
    format      ascii;
    class       volScalarField;
    location    "18";
    object      k;
}
// * * * * * * * * * * * * * * * * * * * * * * * * * * * * * * * * * * * * * //

dimensions      [0 2 -2 0 0 0 0];

internalField   nonuniform List<scalar> 
75457
(
1.94973
2.22012
1.33748
0.670434
1.42568
1.52738
1.72644
1.67736
0.485026
0.479134
0.433171
1.23874
1.07558
0.505135
0.0873261
0.0712996
0.0168889
0.0507479
0.0610033
0.0108347
0.0290908
0.0200866
0.081764
0.083325
0.0497698
0.101618
0.103937
0.102614
0.094094
0.145535
0.0894545
0.129604
0.129997
0.056871
0.0501663
0.0666633
0.0578414
0.134939
0.121728
0.0616402
0.0640263
0.0577102
0.0599231
0.0861748
0.147429
0.0311235
0.0162691
0.0754695
0.615602
0.195271
0.392557
0.549163
1.30203
0.389086
0.223861
0.242757
1.0037
0.965254
0.824453
1.37812
1.11621
0.687999
0.452778
0.318895
0.0561711
0.328846
0.0871775
0.37545
0.484013
0.908757
0.463593
0.989859
0.363104
0.029144
0.452744
0.129543
0.137438
2.36225
2.05233
1.63154
1.74184
1.87904
2.19833
1.8456
1.18728
1.18842
1.35816
1.53689
2.22411
1.53601
1.85732
1.65409
1.72113
1.55935
0.915398
0.333531
0.361547
0.397122
1.74281
0.844146
0.803892
1.25045
0.116222
0.0638794
0.0401446
0.0557705
0.18692
0.0406834
1.07555
0.310915
0.376907
0.778336
0.85677
0.701567
0.0693734
0.833708
1.28587
0.457084
0.447953
1.53797
0.0189092
0.0722745
0.0767677
0.185919
0.444581
0.270286
0.844727
0.440202
0.846972
0.0926586
0.169463
0.9047
0.275221
0.588312
0.519146
0.870491
0.361174
0.744089
0.712327
1.30806
0.134277
0.265191
0.460766
0.151026
0.188372
0.652085
0.588378
0.525478
1.22428
0.698585
1.83204
1.1093
0.281063
0.197579
0.610354
0.971835
0.665993
1.24975
0.41364
0.87572
1.31749
0.311764
0.994962
0.00522673
0.00544411
0.00562665
0.00546993
0.00558277
0.00503173
0.00500975
0.00519975
0.0055599
0.00511436
0.00532679
0.00517867
0.0050545
0.686062
0.730025
0.879498
1.12777
0.975448
1.21503
0.700166
0.913433
1.43608
0.527524
0.727275
0.857787
1.35497
2.82272
0.95635
0.592432
0.83093
0.925135
0.641188
1.34778
0.106444
0.247241
0.188861
0.140604
0.0920872
0.569898
0.716071
0.740072
0.472539
0.519957
0.892486
1.52966
1.48459
1.49581
1.19942
1.20291
1.56493
1.72619
1.07058
1.03292
1.78822
1.14982
1.89707
1.86315
1.68556
0.911811
0.942463
1.28822
0.884537
0.952826
1.82591
0.887836
0.833395
0.954338
0.232679
0.22233
1.25049
0.65646
0.874069
0.766185
1.13707
0.403972
0.436705
0.465403
0.474188
1.03527
1.20832
0.902999
1.22704
0.955891
0.72898
0.878009
1.14392
1.58843
1.08653
1.24098
0.698777
1.11845
0.727137
0.796215
0.414998
0.228411
0.322502
0.0454386
0.119969
0.142693
0.425212
0.352933
0.923173
1.58946
1.10608
2.0655
1.43499
1.39751
1.60787
1.3453
0.844783
0.880771
0.898221
0.804994
0.977312
0.886952
1.18172
0.84875
1.05583
1.02113
0.968507
0.915147
0.76746
0.84187
0.682129
0.275204
0.31234
0.493488
0.408808
0.468456
0.712006
0.99712
0.967373
1.21522
1.04765
0.875767
0.861812
1.05013
0.905338
0.321746
0.655571
0.275985
0.281962
0.288605
0.287218
0.308797
0.343417
0.412018
0.356169
0.464824
0.31908
0.342223
0.847247
0.994787
0.356416
0.643594
0.41427
0.100345
0.632232
0.36039
0.563345
0.309926
0.165305
0.506601
0.442599
0.461018
0.995701
1.10859
0.605517
0.579417
1.11317
1.28448
0.538552
0.558865
1.18291
1.11205
1.88088
1.08949
1.07962
1.71423
0.802468
0.806377
0.798184
0.568744
0.861623
0.916992
0.957835
1.19848
0.896113
0.459186
0.858858
0.641898
1.00044
1.21901
1.2562
2.14617
0.888708
0.780814
1.36601
1.49312
1.42233
1.43604
0.39448
0.378927
0.462643
0.481497
0.710555
0.589316
1.13602
0.61588
0.674779
0.922218
1.5966
1.12915
1.03024
0.965574
1.04257
0.949499
0.820862
0.644486
0.336753
0.343917
1.25674
1.20458
0.881528
1.0878
0.33487
0.295695
0.769976
0.0040214
0.00419026
0.00374942
0.00373893
0.00423728
0.00443572
0.00396809
0.00426785
0.00417711
0.00527704
0.00378824
0.00372124
0.00368013
0.00368999
0.00376995
0.0038267
0.00367782
0.00370179
0.00391572
0.00393648
0.00380731
0.00357393
0.00353838
0.00351973
0.0039058
0.00384037
0.00373644
0.00353678
0.00347954
0.00368915
0.00373093
0.00387212
0.00390803
0.00368852
0.0037077
0.00381993
0.00378255
0.00374343
0.00378459
0.00389288
0.00388259
0.00373406
0.0038112
0.00375936
0.00376356
0.00372193
0.00378341
0.00387972
0.004003
0.00375069
0.00386851
0.00386294
0.00380652
0.194676
0.0700848
0.0737027
0.0674583
0.0710012
0.160172
0.0644286
0.077889
0.0529588
0.187339
0.0514795
0.0532586
0.0557935
0.0616448
0.0448011
0.161367
1.45985
0.937492
0.854739
0.946275
0.412275
0.432671
0.76955
0.741411
0.409209
0.403938
1.86087
1.45898
1.4987
0.967132
0.456004
0.107341
0.0128392
0.0185799
0.0780216
0.0762874
0.0472431
0.0181043
0.0173956
0.0174356
0.0220842
0.0136589
0.0449639
0.0735762
0.072148
0.0814414
0.248488
0.0899789
0.0562207
0.0549709
0.0039995
0.0040619
0.00404908
0.00399784
0.00392683
0.0041381
0.00414848
0.0037905
0.00393452
0.0041137
0.00411269
0.00439391
0.00414896
0.00397659
0.00397181
0.00400646
0.00491364
0.00469655
0.00497603
0.00472556
0.00453327
0.00502743
0.00542567
0.00511438
0.00496204
0.00511469
0.00505336
0.00487949
0.00511762
0.00487386
0.0049684
0.00539066
0.00541287
0.00448926
0.00478267
0.00453965
0.00475487
0.00467521
0.00455463
0.00351643
0.00694598
0.00429826
0.00453773
0.0040678
0.00448302
0.00430215
0.00445097
0.00423902
0.0042828
0.00356347
0.468356
0.357793
0.41731
0.51527
0.335266
0.540407
0.511329
0.591209
0.377023
0.381381
0.392001
0.540272
0.686691
0.468454
0.606459
0.371103
0.580515
0.625466
0.051565
0.0527883
0.0627117
0.0848326
0.0304547
0.0985024
0.0570885
0.0579906
0.0609694
0.118147
0.0683661
0.0650526
0.0646524
0.0374118
0.131668
0.121025
0.154406
0.0925288
0.164816
0.162828
0.177768
0.131466
0.114273
0.171182
0.176564
0.180476
0.131541
0.0805864
0.0868345
0.170175
0.10409
0.143371
0.0038902
0.00392336
0.00396125
0.00443313
0.00470624
0.00394394
0.00384119
0.00435121
0.00418354
0.00423581
0.00363599
0.00465452
0.300752
0.19063
0.418842
0.151917
0.362369
0.286392
0.299165
0.314288
0.376027
0.0929873
0.0687581
0.0783959
0.0950364
0.0769034
0.0791191
0.0872732
0.0180086
0.0912632
0.0112312
0.0802357
0.211643
0.181618
0.260786
0.163422
0.13428
0.0860394
0.05583
0.0311072
0.177693
0.0474
0.0567761
0.0786913
0.00608708
0.00713278
0.0405514
0.00903304
0.00153281
0.0569725
0.0427159
0.0127622
0.000132142
0.00206372
0.000800149
0.00221702
0.00310512
0.00278941
0.00399006
0.0566251
0.0509939
0.0513856
0.0161594
0.144745
0.117136
0.0754204
0.202649
0.110904
0.163928
0.123643
0.065057
0.107455
0.0598507
0.177597
0.141945
0.118612
0.11978
0.316111
0.324262
0.277699
0.297895
0.286138
0.291962
0.207872
0.239814
0.302016
0.193943
0.202078
0.325797
0.229381
0.203243
0.22392
0.196359
0.198916
0.21562
0.20129
0.435471
0.495479
0.023325
0.088017
0.33276
0.170709
0.0369721
0.0722533
0.572483
0.377446
1.32686
1.30213
1.39783
1.43902
1.42632
1.51473
1.37383
1.42103
1.21389
1.1853
1.4465
1.64395
1.6599
1.5699
1.63844
1.58061
1.4533
1.27086
1.40108
1.32665
1.38979
0.0365464
0.0272876
0.087586
0.0628868
0.0708877
0.0309095
0.0542059
0.0549942
0.0542683
0.164299
0.214396
0.274209
0.027086
0.209444
0.382569
0.163412
0.271403
0.0517098
0.169336
0.273887
0.537628
0.165199
0.201391
0.708577
0.610251
0.184294
0.520946
0.321358
1.32673
1.3693
1.38304
1.48517
1.30909
1.46851
1.51945
1.46262
1.37822
1.38595
1.45231
1.41736
1.46501
0.0526752
0.0637691
0.0172316
0.02168
0.0196677
0.0173994
0.0298474
0.0368355
0.114703
0.0405656
0.0702825
0.0774221
0.0197615
0.0213223
0.0768935
0.0382004
0.0729248
0.0702003
0.0516048
0.0970886
0.116891
0.0431939
0.0723017
0.0238909
0.110767
0.0327032
0.0251511
0.128064
0.122803
0.0186778
0.0810524
0.0973507
0.0746623
0.0693874
0.12731
0.029134
0.0546368
0.184241
0.106222
0.0428781
0.00566871
0.0132829
0.117046
0.208687
0.102963
0.100609
0.132329
0.185665
0.095123
0.125029
0.108476
0.0641583
0.0625843
0.116466
0.131459
0.180969
0.06704
0.0724603
0.0971065
0.183893
0.127657
0.0903288
0.115577
0.100036
0.499464
0.463753
0.0499827
0.0983072
0.142308
0.198395
0.099895
0.114224
0.193288
0.430809
0.567113
0.459008
0.146268
0.188803
0.0977748
0.339974
0.250294
0.0313888
0.0316262
0.0234331
0.0256133
0.0283481
0.0227226
0.0193397
0.0234254
0.0218829
0.0292883
0.030909
0.0183621
0.0303608
0.0312314
0.00382845
0.00375998
0.00390888
0.00394246
0.00395002
0.00385685
0.00402772
0.00391128
0.00422366
0.00433671
0.124257
0.0838608
0.131368
0.17993
0.0571518
0.0492975
0.168345
0.244197
0.0672981
0.141312
0.140587
0.14016
0.16666
0.0495539
0.161285
0.140198
0.0346058
0.631596
0.688856
0.645557
1.07515
0.975112
0.77323
0.993491
0.925374
0.958231
1.02807
0.595841
0.595436
0.741554
0.662547
0.887476
0.925931
0.889859
0.623014
0.676322
0.700317
0.00246355
0.00370413
0.00364871
0.0022307
0.00482559
0.0283323
0.0326062
0.00538715
0.00377016
0.00332595
0.0309242
0.0388783
0.00201673
0.0176837
0.0238107
0.0453271
1.94617
2.28551
2.53911
2.37894
1.81787
2.21265
1.76135
2.32779
2.82407
2.54594
1.94818
2.05262
2.28438
0.0916685
0.126352
0.12067
0.0820911
0.0699073
0.074598
0.116859
0.0986708
0.0790446
0.0849753
0.0484597
0.0804744
0.040681
0.116926
0.0945776
0.053539
0.121452
0.109435
0.0490742
0.0447522
0.042955
0.0525502
0.00141933
0.000309037
0.00266614
0.00159998
0.00151647
0.0260087
0.105003
0.00395505
0.0372995
0.263546
0.296009
0.157509
0.146447
0.179961
0.0493042
0.161233
0.20537
0.156881
0.0550893
0.0540197
0.145314
0.0264501
0.0737634
0.061322
0.049076
0.0494453
0.0778182
0.0491199
1.01169
1.01646
1.23543
1.13211
1.02997
0.991313
1.09682
1.08496
1.23715
1.14624
1.27899
1.27598
1.32139
1.32706
1.27278
1.18081
0.0714129
0.165345
0.134711
0.0751864
0.0109342
0.0190568
0.0265337
0.0116887
0.010776
0.0102002
0.0871957
0.0588344
0.0187898
0.000577334
0.0310371
0.0228272
1.15995
1.71294
1.13706
1.54794
1.33888
1.98973
0.495987
0.622191
0.459526
0.49182
0.508821
0.748072
1.46812
1.90817
1.25147
0.812917
1.01181
1.01622
0.752634
1.75709
0.0133666
0.00925435
0.00738925
0.00650543
0.00783805
0.00583372
0.00655791
0.00669492
0.00662552
0.0147651
0.0165577
0.00887611
0.00871394
0.00588689
0.0153058
0.0644031
0.0753012
0.126916
0.174206
0.24196
0.242825
0.305627
0.12441
0.420281
0.558547
0.490214
0.234951
0.6345
0.65114
0.0245504
0.0442227
0.018535
0.0225175
0.0195513
0.0304697
0.0121138
0.00668685
0.0324271
0.00755009
0.018747
0.0066945
0.0108188
0.00662095
0.00543479
0.00576494
0.0745398
0.0808133
0.0640026
0.064573
0.224033
0.231588
0.0428382
0.122053
0.117391
0.0518729
0.221084
0.176779
0.26856
0.16646
0.178284
0.239283
0.245298
0.286118
0.287651
0.0115069
0.0576088
0.02986
0.0237759
0.0132448
0.120424
0.0362464
0.0515256
0.0682796
0.0497748
0.0123196
0.0145121
0.024126
0.0160042
0.0743156
0.0580345
0.0472171
0.107063
0.0747318
0.0904566
0.0396192
0.0578104
0.114207
0.0710512
0.0639531
0.0160105
0.0118913
0.0105463
0.0780584
0.00482492
0.00648288
0.0254925
0.0229648
0.0126248
0.0109358
0.0261289
0.0290082
0.0131595
0.0250753
0.00910042
0.00731347
0.00733012
0.0080691
0.030912
0.00854893
0.0230712
0.0207041
0.0165492
0.0311181
0.0243841
0.0251128
0.0607895
0.0230768
0.0650858
0.0716598
0.0557424
0.0392543
0.528953
1.15757
1.68961
0.892843
1.30568
0.649625
0.807328
1.22727
1.42292
0.475924
0.955082
1.12491
1.63442
0.641711
1.11115
0.306373
0.820724
0.459099
0.417966
0.766793
0.915058
0.70529
0.40952
0.366567
0.362403
1.27258
1.2704
1.284
1.43481
0.358131
0.366902
0.352936
0.320874
0.347267
0.639247
0.671822
0.58422
0.0435482
0.0857766
0.0253415
0.0422314
0.022766
0.022649
0.01763
0.0248367
0.0220319
0.0216983
0.0369071
0.0170825
0.0192696
0.0201787
0.0195416
0.0153507
1.16579
1.2556
1.10685
1.2781
0.476946
0.823321
1.32214
0.78797
0.647495
0.864226
0.798601
0.924722
0.205472
1.1984
1.37007
0.98493
1.14845
0.297561
0.0710824
0.94253
0.0669686
0.993741
1.28323
0.40806
0.773396
0.298808
1.14544
1.4746
1.07979
0.123941
0.352441
0.448751
1.62682
0.367869
0.747953
0.834377
1.36915
0.383613
0.578097
0.566026
1.08224
0.318406
0.481162
1.55055
0.360252
0.721595
0.385843
0.930768
1.38802
0.74456
0.441674
1.09937
1.21403
0.365719
0.226673
0.864864
0.2283
0.825951
1.37609
0.816815
0.215703
0.257121
1.26727
0.833917
0.263328
0.23739
0.331029
0.254044
0.108709
0.171461
0.135998
0.267394
0.281548
0.0712713
0.0858582
0.0905674
0.216119
0.32613
0.137104
0.167907
0.0865821
0.224077
0.241486
0.0837391
0.0789004
0.0445777
0.0375188
0.0412379
0.0469273
0.121181
0.0688721
0.0448363
0.0673754
0.0485641
0.41472
0.707034
0.282545
0.0108522
0.0104589
0.0100532
0.0103648
0.0111708
0.00935343
0.0333093
0.0391529
0.06103
0.0321454
0.00161606
0.0128894
0.0141682
0.00849888
0.0274161
0.0265455
0.0783169
0.0303745
0.00658056
0.00738463
0.778612
0.783524
0.734543
0.640646
0.952599
0.9349
0.948944
0.778351
0.577337
0.70166
0.743421
0.749885
0.711478
0.760697
0.63051
0.707395
0.595072
0.576614
0.580942
0.027903
0.0133884
0.0192822
0.0151089
0.495034
0.803337
0.218626
0.360032
0.0564033
0.0224612
0.364205
0.0775044
0.0287525
0.192293
0.612561
0.225832
0.132094
0.312425
0.131035
0.321831
0.136734
0.126032
0.226311
0.139113
0.221708
0.818277
1.03636
0.528847
0.536206
0.404459
0.312825
0.216489
0.361759
0.296888
0.627686
0.284219
0.187677
0.197366
0.28717
1.75376
1.61804
1.87758
1.96417
1.8659
2.12872
1.4723
1.50907
1.47913
1.42825
1.39403
1.79791
1.75264
1.43887
1.88801
2.04182
0.02353
0.0222428
0.0247528
0.029917
0.030388
0.0269079
0.0503701
0.0418813
0.0448308
0.027692
0.0314437
0.0300564
0.0454839
0.0351457
0.0358013
0.0345144
0.0417244
0.0391458
0.0394249
0.0304048
0.729214
1.00764
0.601821
1.01367
0.461741
0.524835
0.186042
0.326847
1.12208
0.656635
1.13526
0.941993
0.243028
0.233506
1.1526
0.842278
1.12922
0.735609
1.42101
0.483841
0.0219342
0.0445849
0.0551417
0.0549547
0.0372835
0.0281722
0.025019
0.0391216
0.0490283
0.0417579
0.0426091
0.0380379
0.0658482
0.0316408
0.0840509
0.0765721
0.0784856
0.507528
1.10945
1.00602
1.9332
0.563082
0.651881
0.824377
0.884213
2.94666
0.841157
0.490934
1.63041
0.0119942
0.0104986
0.00903197
0.0041274
0.0114664
0.0083499
0.00770304
0.00524536
0.00496737
0.0136212
0.00885031
0.00476607
0.0570367
0.000277402
0.0196576
0.00104356
0.0309841
0.0974922
0.00111243
0.056399
0.0807061
0.164981
0.148699
0.00678512
0.0114251
0.249276
0.176425
0.263639
0.0101777
0.0214421
0.0354542
0.00782687
0.0171949
0.0201696
0.00772251
0.0711528
0.0209808
0.0305035
0.00984413
0.0531397
0.152549
0.0394727
0.0639061
0.0952211
0.361611
0.00765459
0.0163743
0.265071
0.459937
0.0412092
0.0142903
0.0973932
0.242368
0.0675108
0.245559
0.248743
0.20023
0.10456
0.134485
0.216259
0.154728
0.152833
0.0782593
0.0258469
0.122763
0.0678825
0.0631445
0.0215247
0.0143553
0.0229821
0.0284656
0.0520203
0.00206161
0.00406542
0.00146493
0.00288828
0.0718419
0.0710741
0.00892552
0.00111185
0.00514176
0.0375501
0.0721955
0.0712508
0.0112605
0.00353786
0.00523646
0.134095
0.0767582
0.5119
0.359222
0.123036
0.48577
0.328624
0.219461
0.104986
0.0197445
0.00130848
0.0160516
0.0536617
0.00532291
0.0209683
0.0213592
0.00741236
0.0269122
0.0188759
0.0204815
0.0246594
0.0248886
0.0106161
0.0110168
0.0227729
0.0274557
0.0257711
0.0207331
0.0176627
0.0261282
0.0200769
0.112812
0.0708003
0.0639817
0.162648
0.0668258
0.545099
1.0674
0.0947687
0.234949
0.299934
0.208923
0.345639
0.301752
0.126469
0.848613
0.990032
1.23155
1.18906
0.499171
0.38795
0.229418
0.0673943
0.084395
0.381595
0.347292
0.154308
0.148354
0.145262
0.0819442
0.100887
0.156938
0.0956614
0.0821724
0.123639
0.0720125
0.0469532
0.128101
0.194339
0.125103
0.122806
0.380495
0.405163
0.402875
0.39277
0.401755
0.393415
0.399151
0.40601
0.418241
0.389813
0.374388
0.407449
0.479415
0.444302
0.406199
0.39323
0.494412
0.375946
0.421091
0.529064
0.510922
0.430295
0.961598
0.776131
0.592799
0.825163
1.21376
0.763243
0.448618
0.859819
0.463567
0.786162
0.82796
1.58382
1.65618
0.915901
1.49923
1.77127
1.11033
1.57553
1.08989
0.735559
0.501396
0.360001
1.42523
1.00786
1.03314
0.196851
0.337708
1.22313
0.271046
1.01123
0.893319
0.250882
0.22601
0.19127
0.808601
0.975264
0.989675
0.96213
0.89997
0.979214
0.988421
0.90266
1.00557
0.948519
0.94325
0.975987
0.937162
0.868559
0.886604
0.833075
1.03353
0.968478
0.967742
0.86466
0.920161
0.96713
0.907902
0.634106
0.208663
0.235523
0.265529
0.731654
0.542626
0.955424
0.647361
0.561352
0.21294
0.431886
0.752929
0.539754
1.14166
1.06968
0.432711
0.46306
0.507874
1.46965
0.907016
0.956659
0.650183
0.401967
0.979555
1.08783
0.467295
0.346292
0.257397
0.953696
0.814622
1.04176
1.33163
0.605606
0.899501
0.902824
0.263813
0.653834
0.711602
0.283614
0.278623
0.988258
0.788327
0.808119
1.13987
0.818925
0.852424
0.30265
0.279102
0.657413
0.305253
0.934769
1.02468
1.08709
1.01914
1.03177
0.84622
0.922813
0.796413
0.93262
0.866116
0.573177
0.560563
0.958428
0.684471
0.547303
0.811109
0.837906
0.0753336
0.0869242
0.0901454
0.0891921
0.0881586
0.100127
0.0837158
0.0985577
0.0759445
0.0750855
0.0769163
0.101783
0.0806832
0.0940787
0.0855922
0.0929638
0.0830424
0.0825867
0.084958
0.116767
0.099568
0.0871793
0.112719
0.0908982
0.0706543
0.0784321
0.0929254
0.0446678
0.030884
0.0736455
0.0476258
0.0211282
0.0164691
0.0291371
0.0272209
0.0166502
0.0278665
0.0268048
0.0218771
0.0268262
2.09383
1.52283
1.59611
1.74097
1.4675
1.68301
2.41767
1.34591
1.47907
2.5593
1.55639
1.37928
1.49675
1.38818
3.66531
1.6784
2.6767
0.122753
0.0209622
0.136261
0.676555
0.543729
0.0270477
0.0896633
0.0806153
0.011241
0.261482
0.391789
0.64368
0.191766
0.189829
0.461162
0.680351
0.104495
0.105138
0.118889
0.117578
0.15523
0.178527
0.13033
0.922428
0.740826
0.165226
0.120207
0.270612
0.477048
0.768827
0.512458
0.602466
0.620611
0.766568
1.23595
1.6409
1.04043
1.50003
0.316306
0.629139
0.285765
0.0343086
0.0294643
0.0362626
0.0290469
0.0259207
0.0347609
0.0284162
0.0274973
0.0375282
0.0454388
0.037051
0.03409
0.0288895
0.034476
0.12484
0.159281
0.104106
0.106691
0.239581
0.0906311
0.104973
0.200798
0.337375
0.23917
0.400432
0.146398
0.152793
0.247219
0.0826662
0.505895
0.585608
0.487327
0.940739
1.07933
1.00347
1.36679
1.63998
0.791082
0.652054
1.40806
1.47336
1.10001
1.50226
1.22354
1.26589
1.39246
1.39724
0.0294507
0.0410718
0.0249031
0.0242727
0.0273157
0.0239135
0.0282342
0.0222395
0.0220761
0.0174722
0.934851
0.922923
0.670729
1.13389
0.236451
0.196729
0.146509
0.293954
0.533179
0.652383
0.911636
0.937042
0.772816
0.176158
0.195595
0.0690701
0.595634
0.822204
0.181535
0.188484
0.159235
0.189284
0.792173
0.595921
0.727973
0.580881
0.767335
0.682513
0.537071
0.873319
0.790213
0.672602
0.711902
0.678174
0.469041
0.837927
0.788084
0.54042
0.412069
0.822082
0.00696302
0.00685444
0.00651527
0.00698951
0.00662933
0.00633109
0.00669996
0.00656651
0.00614524
0.00645073
0.00627189
0.00653341
0.00675266
0.00654488
0.00628551
0.00601667
0.00612486
0.00591672
0.00626827
0.984026
1.06746
0.763252
0.911151
0.737626
0.733199
0.80572
0.645312
0.711784
0.660889
0.929916
1.03032
1.03657
0.909101
0.75283
0.723293
0.840125
0.930376
0.0277356
0.0289373
0.0242722
0.0220809
0.0370011
0.0310572
0.0358735
0.0302542
0.028024
0.0471979
0.0354743
0.0368785
0.0370077
0.0444467
0.0597934
0.0571488
0.00401861
0.00412103
0.0041096
0.00403487
0.00406915
0.00400715
0.0039955
0.0039545
0.00397835
0.00397019
0.0039776
0.00393108
0.00398684
0.00460197
0.00456495
0.00468405
0.00467121
0.0045978
0.0044703
0.00496078
0.00471779
0.0050824
0.00475871
0.00487808
0.0048653
0.00479891
0.00494753
0.00463729
0.00430773
0.00479263
0.00406628
0.00448387
0.00447864
0.00244594
0.00405155
0.00425587
0.00443602
0.00425596
0.00459985
0.00381343
0.00425819
0.00424448
0.00457808
0.00451913
0.00883013
0.00882412
0.00860997
0.00800825
0.00814093
0.00846629
0.00787905
0.00791553
0.00823099
0.00831382
0.00998203
0.0098249
0.00840167
0.00802031
0.00826789
0.00832037
0.00976547
0.0086752
0.00888318
0.00869466
0.717979
0.710902
0.63485
0.39406
0.541403
0.475734
0.713795
0.566149
0.647128
0.312992
0.337867
0.630991
0.494999
0.583089
0.675823
1.02864
0.706779
0.848859
0.884828
0.960561
1.09875
0.844495
0.944981
0.969788
1.04186
1.10209
1.27596
1.0632
0.467732
0.432631
0.495336
1.03337
1.04483
0.0116713
0.0108925
0.0109276
0.00960776
0.0124177
0.0110858
0.00963322
0.009502
0.0102601
0.0109182
0.00879778
0.00871432
0.00858084
0.00923186
0.00975102
0.262004
0.204237
0.191041
0.180717
0.330511
0.195678
0.258583
0.327416
0.373389
0.00809576
0.00851135
0.00749358
0.00751525
0.00817838
0.00736823
0.00728032
0.00771876
0.00703663
0.00679832
0.00684491
0.00668427
0.00703183
0.0078678
0.00735493
0.0068599
0.00691749
0.00715326
0.00782207
0.0081912
0.00697522
0.00717303
0.00272175
0.00397763
0.00237219
0.00285052
0.00399277
0.00771489
0.00327161
0.00249857
0.00220782
0.0027023
0.00235364
0.00279138
0.0032001
0.00200209
0.00244152
0.00290278
0.00285
0.00556178
0.00317615
0.00764736
0.00409367
0.00400925
0.00382391
0.00422834
0.00479034
0.00415305
0.00437878
0.00461391
0.00426052
0.00401708
0.00385741
0.00372411
0.00376453
0.00426788
0.0041749
0.00456627
0.00442624
0.00437389
0.00409722
0.00428977
0.0040572
0.00456958
0.00376472
0.00404722
0.00428727
0.00370657
0.0232326
0.0436971
0.0404164
0.0307656
0.0127295
0.0305526
0.000285975
0.00353601
0.0365164
0.0138266
0.0449806
0.0258396
0.0217185
0.00287374
0.00516865
0.0167071
0.00546845
0.00814157
0.00247976
0.00492552
0.00551232
0.00695332
0.00505718
0.0175996
0.00535758
0.00834154
0.00583504
0.00585696
0.00532934
0.00608377
0.00784172
0.00573848
0.00651331
0.0161549
0.00896289
0.0108954
0.0150234
0.00743814
0.00975097
0.00948333
0.00930501
0.00732752
0.00779687
0.0074796
0.00373765
0.00380808
0.00429487
0.00374205
0.00366419
0.00462255
0.00396934
0.00370531
0.00364486
0.00379238
0.00456352
0.00370156
0.00349406
0.00547846
0.00600084
0.00559887
0.00507863
0.00559498
0.00597609
0.00641795
0.00578169
0.00554862
0.0055799
0.00550111
0.00601318
0.00569554
0.25176
0.155804
0.200428
0.259213
0.212414
0.14827
0.189513
0.201785
0.204777
0.278111
0.292128
0.258323
0.274147
0.0292709
0.0118305
0.0136821
0.0134613
0.0124967
0.0291628
0.00745819
0.034659
0.0121052
0.0111133
0.0135112
0.00850413
0.00664557
0.00692444
0.0118592
0.0131006
0.0126655
0.0253206
0.0219082
0.0374279
0.0120581
0.0070545
0.0447408
0.0376714
0.0911079
0.0286306
0.0422441
0.0287807
0.0130076
0.0365765
0.016265
0.0169491
0.0216108
0.0134641
0.0198517
0.0145345
0.0298518
0.016362
0.0100337
0.0109276
0.0265701
0.0144103
0.0118441
0.0145651
0.0184792
1.16257
1.25112
1.20239
0.970922
1.24326
1.1674
1.40675
1.28525
1.25582
1.3611
1.42004
0.00397788
0.00385924
0.00411774
0.00428502
0.00441953
0.00406068
0.00426449
0.00411324
0.0042959
0.00430651
0.00407407
0.00409515
0.00417682
0.00318342
0.00896321
0.00368369
0.0457789
0.00502384
0.00617728
0.00290933
0.00349254
0.00639411
0.00787668
0.004461
0.00547627
0.00573281
0.00493987
0.0103426
0.0041493
0.0052892
0.00512232
0.00830456
0.00447967
0.00449915
0.00463507
0.00357076
0.00381967
0.00306672
0.00207422
0.00461054
0.00337193
0.00346826
0.00461693
0.00351301
0.00377087
0.00397727
0.00379663
0.0038644
0.00344334
0.00330387
0.00378911
0.003843
0.00397472
0.00392918
0.00424872
0.00419048
0.00403108
0.00392103
0.00395184
0.00400799
0.00401496
0.00395913
0.00450385
0.00411277
0.0041116
0.0158827
0.0146069
0.0185486
0.0129949
0.0132511
0.0171457
0.0186984
0.0151664
0.0173655
0.0161049
0.0132959
0.017458
0.0142772
0.000624158
0.00441905
0.00417331
0.00218584
0.00309335
0.00351182
0.00334584
0.00395567
0.00373823
0.00356145
0.00355021
0.00262113
0.000879441
0.00347512
0.00392285
0.00252899
0.00480124
0.00229413
0.00727923
0.00798513
0.00238971
0.00917806
0.0128659
0.00914442
0.010535
0.0175393
0.0153336
0.0129261
0.0226627
0.0238935
0.0177078
0.0233502
0.0292691
0.0167485
0.0175218
0.0212257
0.0241667
0.0180946
0.0233225
0.304697
1.01481
0.228948
0.396618
0.305924
0.762733
0.0933619
0.101996
0.781963
0.0934152
0.342704
1.13925
0.413385
0.275144
0.411137
0.278403
0.0672876
0.300847
0.552814
0.137308
0.658944
0.351846
0.18221
0.076125
0.277333
0.603171
0.629363
0.00785294
0.0159422
0.0166809
0.0123801
0.00838327
0.60702
0.428555
0.557359
0.044894
1.17858
0.127777
1.15855
2.52531
1.99637
1.03227
2.15124
2.60774
0.945282
1.80998
0.351423
1.11801
0.971215
0.676195
0.794034
1.00654
0.732003
0.751734
1.00513
0.952196
0.655701
0.437439
0.819276
0.763241
0.455861
0.518904
1.04642
0.937612
0.667198
0.0415591
0.0794742
0.126014
0.117706
0.0707934
0.131473
0.057293
0.197708
0.0203086
0.0412096
0.358975
0.528394
0.32665
0.420262
0.23191
0.0917486
0.112453
0.143938
0.378428
0.104813
0.347998
0.399155
0.218155
0.190556
0.212406
0.147266
0.182094
0.288235
0.500866
0.420981
0.0878249
0.281098
0.451319
0.288835
0.0548742
0.0020058
0.0171757
0.00184155
0.00308975
0.00247271
0.0375505
0.00280541
0.0239011
0.0341647
0.0426454
0.0404543
0.00362046
0.00406124
0.00311988
0.00496718
0.0126408
0.0123135
1.02708
1.35144
1.27795
1.34406
1.58313
1.19892
2.2994
0.21932
2.09687
0.821282
0.316556
0.041759
0.301037
0.459973
1.26582
0.196761
1.35726
0.837656
0.229068
0.366267
0.0520178
0.273998
0.00283793
0.00292088
0.00211643
0.00209947
0.00284167
0.00279132
0.00284542
0.0026647
0.0028032
0.00309324
0.0026395
0.00270729
0.00252976
0.00255512
0.00259304
0.00237589
0.00259567
0.00278796
0.00267937
0.00254405
0.00802834
0.0246887
0.0770165
0.00433925
0.00163322
0.00310594
0.0825788
0.000696159
0.0178106
0.00366487
0.00374015
0.0254131
0.00361511
0.00365508
0.0247571
2.78429
3.52304
2.89894
3.70126
3.58306
3.2367
3.84114
2.15417
0.0115528
0.00728786
0.0225054
0.019215
0.0198131
0.00543781
0.00982568
0.00586766
0.0193099
0.0147149
0.00573587
0.0141978
0.081153
0.118122
0.972681
0.36441
0.0881609
0.160632
0.896829
0.674274
0.880934
0.931457
1.3187
0.68181
1.08739
1.71824
0.521824
0.202248
0.206293
0.285263
0.00236842
0.00521026
0.00605781
0.00740826
0.00692086
0.00227341
0.00302726
0.00573072
0.00507297
0.00650278
0.00939561
0.00459503
0.00376446
0.000980316
0.00413496
0.00852992
0.0103092
0.00513439
0.0432076
0.0442885
0.0677369
0.0701385
0.0596884
0.0647546
0.0342407
0.0426311
0.050441
0.0782646
0.0694386
0.0460425
0.0983649
0.0476299
0.0691931
0.0714843
0.0651884
0.0423578
0.0414377
0.0681477
0.0711774
0.037948
0.0145506
0.0131872
0.0150969
0.0177362
0.0139148
0.0167926
0.0146709
0.0130783
0.0156651
0.0174732
0.0172518
0.0157966
0.0155466
0.0144155
0.0157441
0.014028
3.97652
3.39148
3.11185
4.15796
3.3041
3.30174
2.51073
1.74281
1.07288
1.0584
1.13316
1.15777
2.68735
1.21437
1.58488
1.39846
1.91641
2.22888
0.0601679
0.126898
0.112861
0.0548305
0.0347808
0.0205445
0.0546488
0.065641
0.0875477
0.0682239
0.0386877
0.0288812
0.0243371
0.0290999
0.0551866
0.0382359
0.00846589
0.00283503
0.0027939
0.00278415
0.00411322
0.00296262
0.00299118
0.00300606
0.00216675
0.00201384
0.011718
0.00890323
0.0159742
0.000504505
0.00262474
0.00214638
0.00243869
0.00265209
0.00638602
0.0126638
0.445628
0.437701
0.360195
0.20473
0.0480272
0.213846
0.0188688
0.159325
0.212187
0.33557
0.054706
0.0459372
0.117057
0.140946
0.0667551
0.0768164
0.0500926
0.0276085
0.0229904
0.0365898
0.0494456
0.0553313
0.0150504
0.0472759
0.0181971
0.0161087
0.0136936
0.0218868
0.23803
0.161074
0.0898319
0.197201
0.300787
0.0559716
0.0379806
0.171662
0.193071
0.170225
0.0425215
0.0295912
0.0930204
0.116371
0.0729753
0.0484768
0.0773449
0.0382137
0.0349418
0.00422226
0.0400464
0.0387782
0.0442942
0.043237
0.0278931
0.0341637
0.0161878
0.0141074
0.0194478
0.0122445
0.0478314
0.046836
0.0246902
0.0396062
0.0364419
0.0386322
0.055006
0.0212018
0.00705056
0.0722902
0.0596459
0.0261137
0.0228983
0.0451934
0.000600796
0.00158767
0.00476723
7.20707e-05
0.000170826
0.00172201
0.00058093
0.000384412
0.0140581
0.0329392
0.0266759
0.00617337
0.00588038
0.0126449
0.00907377
0.011707
0.00775411
0.00849642
0.00330679
0.00493175
0.0005792
0.00929955
0.0090751
0.0049864
0.00466445
0.00499113
0.00501432
0.00460219
0.00476413
0.00505634
0.00486301
0.00486373
0.00482523
0.00496009
0.0047284
0.00457912
0.00478124
0.0120708
0.0124052
0.016716
0.0162469
0.0171405
0.0172743
0.0119651
0.0106774
0.0142591
0.0151541
0.0123714
0.0153338
0.0132157
0.0138124
0.0466048
0.0558256
0.0601041
0.0619974
0.11728
0.11654
0.130882
0.142437
0.0539674
0.0915024
0.0848462
0.0869761
0.11905
0.0837214
0.0744496
0.378898
0.454935
0.0434046
0.00668832
0.136145
0.389713
0.486157
0.0237056
0.0551718
0.0284716
0.0611001
0.137072
0.0356691
0.0559055
0.0257652
0.00836658
0.0398934
0.574497
0.602245
0.509968
0.492382
0.458557
0.46546
0.499063
0.593233
0.44551
0.433201
0.505161
0.502028
0.543292
0.453389
0.419733
0.49017
0.529865
0.53105
0.589897
0.555417
0.555003
0.538249
0.461946
0.46661
0.586921
0.62109
0.639927
0.971982
0.339675
0.418516
0.426002
0.614334
0.274982
0.309508
0.868658
0.721325
0.600109
0.109689
0.16958
0.082279
0.0643156
0.219513
0.202662
0.207144
0.148597
0.217563
0.0594315
0.154446
0.067623
0.206353
0.245948
0.150965
0.185986
0.370687
0.374944
0.175779
0.2669
0.372025
0.421738
0.412149
0.329047
0.286421
0.277775
0.282593
0.308663
0.136914
0.189202
0.348199
0.210254
0.199372
0.221373
0.00356153
0.00374103
0.00392181
0.00358113
0.003342
0.00369455
0.00333353
0.0033763
0.00359893
0.00338596
0.00335038
0.00333644
0.00336728
0.00340033
0.00335982
0.00335262
0.00335191
0.00335609
0.00331051
0.00336332
0.00545961
0.011958
0.0044867
0.00562237
0.0259453
0.0102663
0.00539968
0.0178121
0.00704034
0.00558441
0.00388894
0.0331327
0.00663454
0.00609551
0.00602865
0.00602649
0.00667632
0.0062298
0.00689613
0.00693567
0.00642908
0.00621131
0.00612552
0.0062183
0.00600929
0.00693857
0.0067205
0.0449654
0.0556288
0.0495482
0.0499862
0.244899
0.207575
0.169539
0.178818
0.224716
0.0639444
0.0943251
0.034913
0.0401446
0.150482
0.111204
0.0887541
0.0805085
0.0766672
0.113004
0.0915394
0.072982
0.178615
0.17005
0.38891
0.294637
0.173836
0.245797
0.227893
0.325342