/*--------------------------------*- C++ -*----------------------------------*\
  =========                 |
  \\      /  F ield         | OpenFOAM: The Open Source CFD Toolbox
   \\    /   O peration     | Website:  https://openfoam.org
    \\  /    A nd           | Version:  10
     \\/     M anipulation  |
\*---------------------------------------------------------------------------*/
FoamFile
{
    format      ascii;
    class       volScalarField;
    location    "18";
    object      nut;
}
// * * * * * * * * * * * * * * * * * * * * * * * * * * * * * * * * * * * * * //

dimensions      [0 2 -1 0 0 0 0];

internalField   nonuniform List<scalar> 
75457
(
0.0607435
0.0655953
0.0523073
0.0214213
0.0574971
0.0234753
0.0626009
0.0204817
0.0290314
0.0288551
0.0275954
0.0441
0.0577271
0.0201425
0.0363881
0.0299457
0.00828218
0.0211524
0.0262076
0.00527228
0.0131219
0.00894882
0.0339404
0.0348862
0.0216299
0.0394771
0.0399281
0.0456787
0.0405086
0.0603297
0.0417939
0.0532398
0.0526747
0.0278879
0.0251395
0.0319135
0.0286421
0.0528346
0.0493997
0.0303318
0.0307948
0.0287333
0.0296921
0.0316911
0.0485827
0.0128997
0.00701572
0.0279373
0.0979803
0.0557484
0.0794048
0.0950602
0.0913651
0.0815167
0.0586745
0.0605175
0.124614
0.108018
0.10141
0.0154038
0.0909668
0.101744
0.0518589
0.0443771
0.0079483
0.0411208
0.013071
0.0452921
0.0569237
0.0116244
0.056533
0.0126855
0.0467463
0.00376532
0.0561337
0.018128
0.0180965
0.168586
0.171807
0.227468
0.110427
0.124189
0.19155
0.248176
0.171482
0.225038
0.223431
0.134253
0.182632
0.107364
0.250998
0.261676
0.138158
0.196233
0.160744
0.0987576
0.0983301
0.101521
0.0141767
0.123132
0.0955483
0.113175
0.00525094
0.00319255
0.00101387
0.00135716
0.00897695
0.00217581
0.0101468
0.0428396
0.0667324
0.00809824
0.00808451
0.0522527
0.0130438
0.0846422
0.0116587
0.0495899
0.0520142
0.0136557
0.00313205
0.010698
0.0114578
0.0289956
0.0584867
0.0356499
0.00756998
0.0681888
0.0740037
0.0128687
0.0247099
0.130682
0.0419648
0.0967911
0.155776
0.0567288
0.0512873
0.136288
0.124517
0.00991518
0.030451
0.0491322
0.0692486
0.0347999
0.0412873
0.109083
0.0828557
0.0637257
0.0681602
0.137487
0.0111951
0.119337
0.0549617
0.0477716
0.0679501
0.0720282
0.152868
0.00766581
0.0778783
0.12378
0.00805314
0.0580224
0.121212
0.000864551
0.000869486
0.000861238
0.000878664
0.00087225
0.000868546
0.000864958
0.000855795
0.000883196
0.000849218
0.000866928
0.000868908
0.000868333
0.0788944
0.0920415
0.115818
0.0968051
0.206573
0.00742345
0.180821
0.0752677
0.00872171
0.102002
0.190675
0.0891791
0.0757724
0.0173587
0.120902
0.0750506
0.0972838
0.0711543
0.0694516
0.0136636
0.026646
0.053929
0.0466325
0.0320363
0.0236562
0.0765364
0.0827835
0.00802168
0.0759838
0.0726891
0.0693206
0.130195
0.117522
0.117265
0.107343
0.104993
0.012852
0.0133391
0.111612
0.0936133
0.0145319
0.103908
0.0146506
0.0153929
0.063597
0.106829
0.0772405
0.00980325
0.0831337
0.0835383
0.0138724
0.0673977
0.105998
0.00724098
0.0460973
0.0446844
0.06337
0.0786556
0.0912739
0.105845
0.121684
0.089827
0.0910621
0.0923779
0.0896993
0.113994
0.00935884
0.125453
0.0739455
0.0941447
0.104286
0.119546
0.104489
0.0124202
0.103273
0.00965366
0.0714545
0.0106003
0.090059
0.00751455
0.0657224
0.0294818
0.0423987
0.0089846
0.0317471
0.0347158
0.091348
0.0580899
0.0924769
0.0175101
0.0954544
0.0155905
0.0157797
0.0698005
0.0119918
0.0784532
0.142679
0.145153
0.0893168
0.131798
0.093286
0.0774658
0.0110428
0.0833088
0.111366
0.00947372
0.0994134
0.00854338
0.103306
0.00781622
0.100479
0.0658268
0.0748818
0.090436
0.0810732
0.0858613
0.139685
0.00997372
0.0648569
0.0124914
0.0674136
0.104743
0.105644
0.0105675
0.106523
0.0407798
0.0207707
0.0827394
0.0675827
0.179399
0.0097748
0.113127
0.151787
0.0137053
0.26451
0.110314
0.0711142
0.086261
0.0745782
0.0923143
0.0693258
0.115987
0.0661708
0.00448229
0.0665193
0.088384
0.124681
0.027183
0.00738399
0.112424
0.0953735
0.0890885
0.122521
0.0856991
0.0550553
0.0592065
0.0990661
0.00840526
0.0950344
0.0959735
0.135301
0.140983
0.0124728
0.110106
0.128372
0.0114236
0.124566
0.1261
0.0431206
0.0838663
0.0853462
0.149263
0.0358296
0.20702
0.153791
0.033528
0.129961
0.132186
0.112082
0.147573
0.123577
0.0199526
0.106256
0.139384
0.0184314
0.0141016
0.0197838
0.0136245
0.0869895
0.0892965
0.0838235
0.0932994
0.0946087
0.0898454
0.101567
0.0969828
0.0966467
0.104117
0.0137624
0.0878401
0.0881387
0.124181
0.00889104
0.114376
0.108591
0.0797899
0.0211517
0.0216017
0.068494
0.286922
0.101835
0.123523
0.0691339
0.0692104
0.0936168
0.000889314
0.000916391
0.000848022
0.000847564
0.00092398
0.000962637
0.000879716
0.000933527
0.000908105
0.00113759
0.000837575
0.000839782
0.000814443
0.00082263
0.000847339
0.000839375
0.00082783
0.000838202
0.000897535
0.000902562
0.000857374
0.000816532
0.000793936
0.000801935
0.000869138
0.000857952
0.00085662
0.00079917
0.000789036
0.000827028
0.000838689
0.000909563
0.000904263
0.000850565
0.000847789
0.000885359
0.000869524
0.000853571
0.00085333
0.000913547
0.000902117
0.000876235
0.000895455
0.000869687
0.000861262
0.000858263
0.000856119
0.000893057
0.000916368
0.000864317
0.000884736
0.00089237
0.000873157
0.052299
0.024708
0.0258326
0.023745
0.0250328
0.045284
0.0224891
0.0273782
0.0193723
0.0492727
0.0191803
0.0191518
0.020056
0.021758
0.0169082
0.0472781
0.0436432
0.0389056
0.052285
0.0244493
0.0315514
0.0326883
0.0579573
0.0248483
0.0313781
0.0300954
0.0439398
0.0359639
0.05294
0.0305758
0.0272047
0.00977046
0.0035947
0.00528685
0.0206705
0.0194912
0.0127308
0.00498768
0.00488657
0.00496276
0.00613153
0.00376099
0.0122769
0.0190936
0.0188523
0.0225959
0.0530088
0.0241371
0.0154119
0.0150442
0.000877843
0.00088053
0.000884301
0.000886886
0.000876929
0.00091644
0.000916063
0.000834189
0.000866189
0.000908993
0.000902528
0.000949421
0.000912977
0.000867403
0.00086212
0.000866396
0.000842614
0.000839144
0.000840991
0.000844885
0.000845242
0.000835851
0.00085289
0.000847201
0.000846177
0.000847238
0.000859494
0.000847323
0.000850838
0.000849141
0.000854898
0.000862958
0.000853694
0.000952558
0.000982599
0.000971344
0.0010107
0.00101046
0.000991235
0.00075106
0.00144542
0.000933344
0.00100792
0.000860982
0.000983464
0.000956924
0.000987258
0.000926167
0.000963659
0.000771116
0.10331
0.0898711
0.0942773
0.0978325
0.0942022
0.116217
0.12754
0.131463
0.0997858
0.105595
0.093193
0.101655
0.143508
0.104537
0.141459
0.0908582
0.1134
0.118315
0.0233383
0.0242996
0.0283975
0.0350056
0.0146701
0.0392338
0.025759
0.0265914
0.0278741
0.0450123
0.0299225
0.0298982
0.029179
0.0174718
0.0494623
0.0460603
0.0542957
0.035904
0.05613
0.0558883
0.0612355
0.0483578
0.0431693
0.0580219
0.0594041
0.0615112
0.0490904
0.0314997
0.0339128
0.0601101
0.0388604
0.0516473
0.00091469
0.000918895
0.00092261
0.000985454
0.00103462
0.000919546
0.000894766
0.000967914
0.000945784
0.000947551
0.000851661
0.0010271
0.0748885
0.0551724
0.0964693
0.0460283
0.0854872
0.0727724
0.071375
0.0752682
0.0897669
0.0310012
0.0237894
0.0261385
0.0283876
0.0231019
0.0261963
0.0260728
0.00880063
0.0331051
0.00557704
0.0318283
0.0549746
0.0514702
0.055391
0.0486651
0.0415029
0.0328628
0.023883
0.0144621
0.0431674
0.0206823
0.0232535
0.0287206
0.00166883
0.00196648
0.0111055
0.00245126
0.000402747
0.0153885
0.0117053
0.00354234
3.6819e-05
0.000561208
0.000215805
0.000602363
0.000840151
0.000741141
0.00105895
0.0153886
0.0139955
0.013822
0.00450008
0.0571344
0.0468016
0.0338229
0.0716874
0.0450094
0.0597017
0.0467569
0.0279373
0.0428396
0.0274218
0.0656111
0.054962
0.0481211
0.0483807
0.107456
0.119423
0.0988898
0.102902
0.104957
0.103864
0.0798911
0.0948192
0.115992
0.0801042
0.0819666
0.119649
0.0889969
0.0808538
0.0874124
0.0837969
0.0827485
0.0848435
0.0401935
0.0701133
0.0778109
0.00592262
0.0223208
0.0617478
0.0364026
0.0110717
0.0197632
0.0827579
0.0678137
0.216101
0.22147
0.20831
0.123296
0.166857
0.208115
0.211354
0.171236
0.203748
0.197645
0.199667
0.163941
0.16103
0.199462
0.159969
0.183351
0.197738
0.196809
0.182522
0.136945
0.174948
0.0133808
0.00984705
0.029224
0.0220046
0.0247858
0.0116082
0.0193878
0.0194559
0.0193152
0.0472551
0.0550068
0.0630427
0.0103489
0.0551927
0.0739105
0.0456392
0.0614703
0.0117582
0.0497819
0.0580454
0.0390637
0.0506265
0.0547861
0.0755958
0.0478048
0.0362157
0.066075
0.0526957
0.274045
0.297137
0.22863
0.248071
0.247785
0.24711
0.233867
0.213796
0.206597
0.242876
0.208633
0.225993
0.212738
0.0252621
0.0297979
0.00920408
0.0114003
0.0100293
0.00909748
0.0146585
0.017872
0.0460968
0.0202878
0.0322185
0.0344482
0.0105988
0.0109696
0.0331443
0.0197517
0.0335684
0.0328209
0.0250414
0.039349
0.0459301
0.0214407
0.0276626
0.0102524
0.039562
0.0138867
0.0107899
0.042585
0.0430311
0.00842835
0.0312717
0.0342903
0.0282172
0.026578
0.043105
0.0130243
0.022558
0.0581532
0.0392919
0.0184654
0.00271868
0.00628675
0.0418013
0.058636
0.0432116
0.0409665
0.0451087
0.0555342
0.0394458
0.0517075
0.0421856
0.0282836
0.0274604
0.0422274
0.0457575
0.054882
0.0288054
0.0312538
0.0379581
0.0555308
0.0514869
0.0380431
0.0437987
0.0422761
0.113342
0.0839859
0.0224207
0.0402232
0.0516716
0.0483744
0.0409294
0.0443993
0.0542749
0.116662
0.132383
0.117161
0.055945
0.071138
0.0411225
0.110306
0.0912374
0.0115291
0.0116878
0.00942166
0.0100064
0.0111875
0.00934537
0.00820334
0.0093112
0.00873893
0.0113092
0.012071
0.00774867
0.0115936
0.0117257
0.000861232
0.000794771
0.000807913
0.000870078
0.000842949
0.000814365
0.000830856
0.000848946
0.000899099
0.000901548
0.0409798
0.0313968
0.0435741
0.053198
0.0224004
0.0194426
0.0503829
0.0606169
0.0258259
0.0430035
0.0445258
0.0442323
0.0471185
0.0190477
0.0470815
0.0441916
0.0136409
0.109588
0.113335
0.108982
0.170879
0.162971
0.136136
0.159762
0.156427
0.166632
0.179849
0.101618
0.103614
0.122898
0.115508
0.145206
0.165163
0.156013
0.11287
0.11909
0.126322
0.000516735
0.000766634
0.000768448
0.000466935
0.000960918
0.00549836
0.0058212
0.00109568
0.000765734
0.000693632
0.00564434
0.00702886
0.000423878
0.00363568
0.00467598
0.00779116
0.212015
0.287184
0.356311
0.317545
0.155512
0.242458
0.146063
0.202818
0.272757
0.277432
0.164166
0.194098
0.223864
0.0312392
0.039959
0.0409349
0.0294159
0.0257743
0.0270008
0.0376623
0.0330395
0.0282651
0.0300937
0.0190538
0.0281774
0.0105618
0.0274888
0.0237053
0.0137403
0.0289997
0.0266871
0.0130317
0.0119829
0.0116058
0.0139343
0.000373785
8.20495e-05
0.000691978
0.000418246
0.000386964
0.00675396
0.0260867
0.00102617
0.00968941
0.0631837
0.0712227
0.0400256
0.0372858
0.0429444
0.0159557
0.0446843
0.0514913
0.0428992
0.0192633
0.018859
0.0410746
0.00985111
0.0237776
0.0201726
0.017614
0.017889
0.0253478
0.0172706
0.21209
0.131059
0.218008
0.213188
0.169325
0.191549
0.12731
0.226794
0.180712
0.215407
0.222038
0.229527
0.219576
0.190821
0.213538
0.163324
0.0158865
0.0336355
0.0290728
0.0170717
0.00248729
0.00425177
0.0060079
0.00266458
0.00244069
0.00226294
0.0190027
0.0131281
0.00411935
0.00012634
0.00645982
0.00491454
0.0223392
0.146627
0.0829382
0.129243
0.025249
0.137042
0.0852762
0.0633626
0.0772022
0.0774453
0.0830455
0.107937
0.165979
0.17586
0.0897731
0.0963586
0.0982114
0.0975038
0.085371
0.175031
0.00200243
0.00121273
0.00100601
0.000919576
0.00114633
0.000815502
0.00084813
0.000907669
0.00096031
0.00201895
0.0022426
0.00125767
0.00116301
0.00084524
0.00214575
0.0128491
0.0141102
0.0238373
0.0324433
0.0404656
0.0382396
0.0424009
0.0203971
0.0556492
0.0698598
0.064986
0.0349242
0.0741192
0.0718522
0.0065696
0.0106907
0.00510732
0.00605091
0.00543148
0.00799822
0.00353689
0.00206451
0.00819884
0.00217076
0.00518585
0.00207185
0.00319114
0.00205502
0.00167396
0.00180279
0.0311762
0.0331853
0.0274461
0.0273854
0.0621318
0.0626798
0.0194913
0.0424182
0.0404325
0.023587
0.0630628
0.0534664
0.0651395
0.0512993
0.0547653
0.0635737
0.0670223
0.0651783
0.0636697
0.00430857
0.0169438
0.00968569
0.00831141
0.00479663
0.0310807
0.0113792
0.0153587
0.0190125
0.0145223
0.0047379
0.00551506
0.00820061
0.00594558
0.0208489
0.0173447
0.0170389
0.0348019
0.0261553
0.0305007
0.015043
0.0210992
0.0371586
0.0255165
0.0229773
0.00193841
0.00165416
0.00146436
0.00960395
0.000566667
0.000859053
0.00345347
0.00303125
0.00167364
0.00146382
0.00343186
0.00389563
0.00160124
0.00313968
0.00112708
0.000878209
0.00091163
0.00102958
0.00417735
0.0010879
0.00739918
0.00672329
0.00543874
0.0103307
0.00800572
0.00783976
0.0205517
0.0075763
0.0204614
0.023467
0.0184453
0.0130156
0.110447
0.163243
0.0138077
0.164696
0.0694032
0.101512
0.07038
0.00990483
0.011574
0.0924038
0.0822271
0.0781222
0.0131772
0.0960607
0.0969244
0.0771565
0.0977008
0.0868215
0.0883254
0.0925411
0.0933544
0.0911673
0.0874739
0.0919852
0.0925709
0.101583
0.0153459
0.0926721
0.0175819
0.0923868
0.0911228
0.0911601
0.0861931
0.0902047
0.113107
0.104798
0.110774
0.021892
0.0378994
0.0135528
0.0213717
0.0122733
0.0123769
0.00966721
0.0134393
0.0119119
0.011718
0.0185125
0.00902621
0.0102299
0.0108599
0.0105185
0.00819734
0.209008
0.175819
0.150928
0.147498
0.0730121
0.0760172
0.221058
0.0965811
0.0809054
0.113251
0.0958694
0.124181
0.053639
0.102504
0.0169352
0.10141
0.0142001
0.0647299
0.0253327
0.0976478
0.0231471
0.116447
0.0763479
0.0846963
0.0947592
0.0725828
0.115105
0.0144868
0.106581
0.0456137
0.0795283
0.0857287
0.0159314
0.0809131
0.112531
0.10357
0.107459
0.0924053
0.0717967
0.15233
0.00998453
0.0543787
0.0677524
0.0142485
0.0671054
0.0851856
0.0496081
0.120869
0.0153344
0.13325
0.0674808
0.0986049
0.0131466
0.0821173
0.0573428
0.100202
0.0592092
0.0944714
0.0148889
0.0956893
0.0621592
0.0666083
0.0845034
0.0896682
0.0690719
0.0670964
0.075533
0.0694965
0.041569
0.0557581
0.0489466
0.0715998
0.0726477
0.0304006
0.0346727
0.0362176
0.0625778
0.0763178
0.0480884
0.0544855
0.0350424
0.0659629
0.0681833
0.0192738
0.0214557
0.0108866
0.00908252
0.0105377
0.0118782
0.0258996
0.0246869
0.0123572
0.0158304
0.0121977
0.0695957
0.0829156
0.0537183
0.000912388
0.000903374
0.000915176
0.000962863
0.000909938
0.000880681
0.00326905
0.00363283
0.00549307
0.00290817
0.000130376
0.000997926
0.00138822
0.00081448
0.00253517
0.00236571
0.00717835
0.00245227
0.00056651
0.000683544
0.039362
0.0583489
0.0540545
0.0443725
0.0279273
0.0355851
0.022599
0.0100303
0.0511173
0.0666577
0.0533786
0.0208802
0.0233816
0.0115859
0.0329597
0.0309347
0.0332857
0.0387489
0.0337375
0.00540589
0.00299368
0.0043927
0.00372786
0.0435861
0.0525974
0.0219388
0.0288284
0.0115508
0.00506953
0.0315305
0.0104209
0.00605093
0.0265764
0.0453113
0.0272513
0.0205083
0.0274922
0.0204047
0.0282345
0.0584816
0.0543942
0.0823182
0.0584176
0.0819215
0.0897257
0.0890483
0.103496
0.0972241
0.106714
0.0890652
0.0795224
0.101711
0.089397
0.0974827
0.0893763
0.071163
0.0830576
0.0883489
0.22709
0.213706
0.191566
0.305147
0.161273
0.112908
0.205192
0.172124
0.224558
0.151015
0.14198
0.172796
0.15834
0.190729
0.280197
0.193879
0.000961138
0.000974076
0.00102926
0.00114865
0.00099819
0.000979153
0.00166041
0.000964423
0.00109365
0.000757681
0.000973341
0.000948206
0.00101745
0.00104127
0.00110092
0.0011048
0.00107255
0.00101003
0.000998623
0.00103558
0.0917851
0.105232
0.0769741
0.100354
0.0737527
0.0786414
0.0437595
0.0619975
0.0940063
0.0807552
0.0107983
0.101423
0.0520889
0.0525452
0.0819797
0.076279
0.0107511
0.0837336
0.0133646
0.074141
0.000715865
0.00118823
0.00132961
0.000983326
0.000885758
0.000944435
0.00101631
0.000990201
0.0010407
0.000994254
0.000939847
0.00106826
0.00105234
0.000770929
0.00106378
0.000945417
0.0014199
0.157227
0.0908165
0.142955
0.0130013
0.0918834
0.110115
0.0955663
0.112891
0.0195294
0.109668
0.248599
0.0756067
0.000989373
0.000905535
0.00059397
0.000283796
0.000873206
0.000719684
0.000704376
0.000491015
0.00035441
0.000899792
0.000702698
0.000368589
0.00444207
1.95541e-05
0.00169833
8.09398e-05
0.0024178
0.00811792
7.20691e-05
0.00502843
0.00712564
0.02844
0.0261315
0.00123672
0.00203146
0.0394648
0.030078
0.0418243
0.00177465
0.00389057
0.00629611
0.00140106
0.00314421
0.00372831
0.0014402
0.0122175
0.00369461
0.00545224
0.00179138
0.0110157
0.0290003
0.00820344
0.0128209
0.0187007
0.057312
0.00160288
0.00330429
0.0435902
0.0661205
0.00802595
0.00294743
0.0191836
0.0409946
0.013082
0.0242016
0.0296308
0.0311135
0.0172613
0.0133246
0.0330334
0.0277666
0.0241165
0.012604
0.00406784
0.0218831
0.010887
0.0101527
0.00344022
0.00456489
0.00714276
0.00894827
0.0156512
0.000670546
0.00134026
0.00046404
0.00092147
0.0205501
0.0194676
0.00285161
0.000353712
0.00161034
0.0113676
0.0206138
0.020806
0.001581
0.000493046
0.000716183
0.0188344
0.0108343
0.0630927
0.0515363
0.0174107
0.0573013
0.0451573
0.0332818
0.0163482
0.00277233
0.000166576
0.00208782
0.00742918
0.000733286
0.000960185
0.00097104
0.000441552
0.00148553
0.000961263
0.000933724
0.000978655
0.000975792
0.000569534
0.000557099
0.000890871
0.000911912
0.00103631
0.000778411
0.000743397
0.00103883
0.000832065
0.0154017
0.0121451
0.0118642
0.0208955
0.0127737
0.0396487
0.0527282
0.0176702
0.0206321
0.0262668
0.024053
0.0335202
0.026034
0.0218274
0.126747
0.0985318
0.0279788
0.173379
0.0603309
0.0571172
0.0407085
0.0145329
0.0188859
0.0555237
0.0529292
0.0292546
0.0287225
0.0294846
0.0170115
0.0211131
0.0313731
0.0205673
0.0182893
0.0254444
0.0156788
0.010122
0.0263498
0.0369381
0.0266991
0.0262199
0.09799
0.113337
0.122516
0.111214
0.0975115
0.114531
0.118354
0.120467
0.096942
0.117097
0.108007
0.113101
0.123164
0.131144
0.125916
0.124906
0.0907451
0.0846404
0.0869284
0.0919744
0.104973
0.0976202
0.10652
0.130818
0.0944532
0.132932
0.0142845
0.091663
0.0890368
0.0932141
0.103908
0.107434
0.0908424
0.112486
0.0198223
0.088473
0.101412
0.0214673
0.103215
0.0204567
0.096394
0.0930984
0.0855168
0.0789176
0.0181193
0.102963
0.0926699
0.0646848
0.0773662
0.106431
0.0693932
0.0969581
0.0938859
0.0658567
0.0643882
0.0581214
0.0997058
0.176778
0.154025
0.166802
0.105183
0.131795
0.122067
0.0991789
0.144174
0.140979
0.118937
0.146336
0.143703
0.112981
0.129692
0.0245596
0.12195
0.108263
0.112796
0.0210816
0.10125
0.121392
0.110327
0.114387
0.0471773
0.0522127
0.0565621
0.08725
0.0781308
0.131556
0.0937955
0.0864145
0.0508093
0.0699336
0.0990657
0.0703423
0.0106817
0.00991505
0.0679414
0.0718857
0.0736132
0.0136682
0.107244
0.0785052
0.0868028
0.121218
0.108322
0.0114132
0.0761528
0.0717003
0.063437
0.0985677
0.0965693
0.0727962
0.014
0.0904399
0.0983146
0.0901808
0.0634814
0.106901
0.124921
0.0644194
0.0635452
0.103669
0.0912773
0.0805343
0.0113187
0.118234
0.0830356
0.0684384
0.0678331
0.0849926
0.0713651
0.157501
0.113987
0.203598
0.17029
0.112664
0.157993
0.177781
0.139063
0.153778
0.179413
0.128373
0.127745
0.203635
0.15731
0.127542
0.173581
0.181735
0.038005
0.0432047
0.044176
0.0441795
0.0439971
0.046731
0.0426674
0.0505303
0.037909
0.0379792
0.0395007
0.0476982
0.0403286
0.0453854
0.0433027
0.0447718
0.0418069
0.0410917
0.041884
0.0495349
0.0455619
0.0433824
0.047134
0.0421295
0.0336291
0.0375895
0.0483603
0.0254818
0.0183076
0.0381612
0.023943
0.0126998
0.00987246
0.0161321
0.0148855
0.0100015
0.0161814
0.0156659
0.0127826
0.0157153
0.257566
0.201749
0.191539
0.194077
0.185476
0.193061
0.287688
0.183242
0.192163
0.288724
0.186495
0.188249
0.20146
0.197385
0.267129
0.203372
0.286115
0.0311032
0.00604963
0.034427
0.0883069
0.0858598
0.00779977
0.0238597
0.0215263
0.00340203
0.0565154
0.0795004
0.0939565
0.0587292
0.0595059
0.0881439
0.101032
0.0387438
0.0371129
0.0422065
0.0420066
0.0512659
0.0465551
0.0440982
0.0960398
0.0992194
0.0480303
0.038402
0.0572969
0.0851556
0.0937737
0.0850896
0.0966505
0.0872795
0.0965471
0.0813664
0.0148167
0.0972608
0.0136081
0.0723478
0.0852213
0.0686396
0.018712
0.0164846
0.0196904
0.0162133
0.0149949
0.0187465
0.0157951
0.0155098
0.0193755
0.0226708
0.0194903
0.0183968
0.016135
0.0185002
0.0395737
0.0504566
0.036576
0.0378214
0.0588614
0.0345028
0.0375089
0.0535618
0.0764662
0.0631565
0.0853374
0.0428853
0.0489437
0.06312
0.0324039
0.0761253
0.0758046
0.0252484
0.0478989
0.21023
0.0519899
0.269316
0.328676
0.0796128
0.120494
0.157229
0.291425
0.254544
0.22126
0.166417
0.295606
0.258349
0.236715
0.00144437
0.0016943
0.00097214
0.0011904
0.00128359
0.00111234
0.00119078
0.00113289
0.000940387
0.000894252
0.0933328
0.0119603
0.0873523
0.0146971
0.0549113
0.0502405
0.0416452
0.0610926
0.0740516
0.0743421
0.0867379
0.0933711
0.0878516
0.0476684
0.0505079
0.024867
0.0744843
0.0863183
0.0469947
0.0500627
0.0435382
0.0466468
0.196268
0.0849793
0.183233
0.120848
0.181113
0.0336624
0.0953857
0.263139
0.215712
0.0351845
0.11631
0.0363269
0.0944421
0.277695
0.257888
0.0973696
0.0655759
0.257582
0.000870849
0.0008708
0.000873451
0.000873539
0.00087282
0.00086921
0.000873585
0.000871095
0.000866704
0.000865708
0.000876295
0.000871098
0.000868001
0.000869272
0.000878307
0.000887146
0.000872474
0.000877561
0.000867169
0.123944
0.114096
0.0821165
0.102286
0.0628115
0.056547
0.0874473
0.100885
0.062568
0.104294
0.0815299
0.110893
0.110284
0.0642878
0.110851
0.100295
0.110765
0.0448646
0.000947858
0.000964809
0.000971597
0.000934909
0.000953575
0.000971169
0.000977141
0.000977725
0.000965977
0.00102871
0.000994204
0.000981969
0.000994965
0.00100981
0.00102787
0.00102215
0.000858288
0.000843844
0.000842378
0.000865721
0.000880268
0.000858771
0.000851918
0.000857773
0.000826897
0.000826206
0.000873914
0.000833022
0.000873771
0.000844447
0.000879759
0.000853164
0.000853919
0.000853021
0.000876639
0.000860522
0.000852066
0.000889098
0.000869266
0.000865907
0.000845044
0.000897801
0.000899823
0.00086426
0.000883065
0.000968003
0.000855424
0.000928891
0.000868487
0.000482782
0.00085545
0.000893652
0.000868642
0.000865049
0.000918203
0.00075616
0.000862991
0.000856402
0.00089917
0.000857909
0.000886638
0.000890234
0.000884989
0.000879676
0.000879558
0.000880765
0.000880831
0.000900814
0.000891845
0.000887065
0.000890044
0.000891449
0.00088378
0.000872929
0.000886777
0.000884827
0.000899643
0.000889133
0.000895931
0.000893536
0.0868408
0.0878401
0.0824609
0.0538963
0.0682147
0.0613693
0.0831367
0.0715902
0.0732625
0.0472098
0.0477459
0.0728112
0.0669107
0.0715477
0.077999
0.106546
0.0789531
0.0959688
0.0899262
0.0958761
0.105316
0.0902591
0.0968572
0.0904217
0.108681
0.0965282
0.104686
0.0920842
0.0478243
0.0482097
0.0479549
0.082272
0.0945259
0.000908799
0.000909264
0.000896472
0.000946969
0.000913366
0.000909277
0.000863277
0.000886815
0.000887485
0.000879162
0.000882581
0.000895795
0.000897087
0.000892685
0.000877164
0.0772345
0.062828
0.0593586
0.0567069
0.0923458
0.0552042
0.0740629
0.0903409
0.102084
0.000882189
0.000889096
0.000883028
0.000881928
0.000893553
0.000881874
0.000880843
0.000887037
0.000886671
0.000874208
0.000870647
0.000854012
0.000868459
0.000886299
0.000881537
0.000868464
0.000844644
0.000853866
0.000898164
0.000886669
0.000885026
0.000833403
0.000725626
0.00104557
0.000633402
0.000758813
0.00105803
0.00197134
0.000858693
0.000684914
0.000581846
0.000729949
0.000620605
0.000761342
0.000840738
0.000552299
0.000671648
0.000791107
0.00076878
0.00150997
0.000858127
0.00207581
0.000821987
0.000840695
0.000785065
0.000903943
0.000955077
0.000871156
0.000903773
0.000933391
0.000873906
0.000839983
0.000801833
0.000805401
0.00080167
0.000900435
0.000888406
0.000925824
0.000914949
0.000883195
0.000884189
0.000889645
0.00086547
0.000928423
0.000808936
0.00089721
0.000932499
0.000802365
0.00833052
0.0146394
0.0135265
0.0108538
0.00482395
0.0113396
0.000115692
0.00137191
0.0123988
0.00544627
0.0149765
0.00943881
0.00811468
0.00119047
0.00210392
0.00624739
0.00220309
0.00328113
0.00100275
0.00197775
0.00219825
0.00272373
0.0019874
0.00656607
0.00215355
0.0032745
0.00180899
0.00178692
0.001582
0.00180568
0.00249024
0.00180482
0.00203409
0.00440415
0.00216632
0.00296741
0.00415791
0.00230833
0.00297404
0.00287511
0.00276835
0.00219914
0.00224034
0.00228146
0.000884508
0.00088466
0.000959694
0.000879517
0.000880124
0.00105217
0.000899167
0.000896789
0.000878749
0.000891629
0.00105277
0.000891685
0.000854719
0.000848264
0.000859808
0.000857296
0.000816759
0.000855524
0.000861931
0.000861938
0.000850328
0.000821699
0.000868329
0.000835379
0.00085944
0.000858076
0.0684795
0.0499056
0.057249
0.0710841
0.0618281
0.0456674
0.0547045
0.0576198
0.0590248
0.0746728
0.0784319
0.0716362
0.0742693
0.0114755
0.00526618
0.00608974
0.00592335
0.00547505
0.0115214
0.00311317
0.0137539
0.00532715
0.00487781
0.00572071
0.00361574
0.00293121
0.00305201
0.00510243
0.00573056
0.00568402
0.0111385
0.00928762
0.0156877
0.00529101
0.0030704
0.0179477
0.0152107
0.0331651
0.0121967
0.0173765
0.01177
0.00556091
0.0150081
0.00686984
0.00661746
0.00850941
0.00540316
0.00801549
0.00579308
0.0116266
0.00640913
0.00406138
0.00446606
0.0105106
0.0055453
0.00472478
0.00574447
0.00707169
0.209682
0.213148
0.204406
0.183938
0.22925
0.217716
0.23724
0.249031
0.241501
0.253958
0.276514
0.00083785
0.00082868
0.000836888
0.000838898
0.000833369
0.000836841
0.000836018
0.000832827
0.000833164
0.000832061
0.00083649
0.00083854
0.000833643
0.000570438
0.00158009
0.000345475
0.00555463
0.000504587
0.00115474
0.000493319
0.000641491
0.00115294
0.00138349
0.000969569
0.00108964
0.00109871
0.00101122
0.00173868
0.00092157
0.00108534
0.00103466
0.00153419
0.000929397
0.000881507
0.000959073
0.000732606
0.000774829
0.000653215
0.000447395
0.000986465
0.000693894
0.000678475
0.000919524
0.000673005
0.000780966
0.000785148
0.000842402
0.000845456
0.000796393
0.00075783
0.000838941
0.000826389
0.000857831
0.000840422
0.000854662
0.000842354
0.000864983
0.000855993
0.000837109
0.000830119
0.00084255
0.000847127
0.000932409
0.000852888
0.000862496
0.000927892
0.000924452
0.000939339
0.000914076
0.00091358
0.000933297
0.000942391
0.000925799
0.000935453
0.000930385
0.000917644
0.000935208
0.000913851
0.000150925
0.00104958
0.00106118
0.000544055
0.000759302
0.000907313
0.000874421
0.000988294
0.000928812
0.00090754
0.000917529
0.00062126
0.000214005
0.000903705
0.000964809
0.000627708
0.00106435
0.000563789
0.00156596
0.00179376
0.0005934
0.00382093
0.00532724
0.00380949
0.00430075
0.00718855
0.00634625
0.00519043
0.00906403
0.00983273
0.00749573
0.0092824
0.0115146
0.00708309
0.00725398
0.00892604
0.00996433
0.00734028
0.0094578
0.0700987
0.190589
0.0533383
0.0852179
0.065207
0.151682
0.0253331
0.0283645
0.155127
0.0251559
0.0831331
0.20815
0.0972211
0.0677801
0.0996632
0.0709767
0.0184245
0.0700975
0.117732
0.0377355
0.140304
0.0864213
0.0473296
0.021008
0.0658627
0.126736
0.131972
0.00442313
0.00864981
0.00898745
0.00710698
0.00444296
0.0750977
0.0511658
0.0651008
0.00701787
0.11536
0.0205953
0.101324
0.178576
0.136489
0.0857257
0.0916124
0.187443
0.0835671
0.133538
0.0451009
0.181959
0.160306
0.108146
0.129695
0.202388
0.183144
0.167111
0.176162
0.187073
0.164321
0.118634
0.145394
0.124132
0.120745
0.13732
0.242191
0.208372
0.154918
0.0084472
0.0125505
0.0172377
0.0102398
0.00728298
0.0102824
0.00440037
0.0124368
0.0040219
0.00936208
0.0189361
0.0169113
0.0153189
0.0122071
0.0133163
0.0105939
0.0141078
0.00722826
0.020639
0.0151746
0.0701491
0.0765358
0.0509874
0.0465461
0.0502372
0.0377565
0.0452579
0.0632144
0.0883698
0.0795161
0.0243678
0.0641762
0.0872785
0.0643584
0.0105884
0.000500221
0.0035243
0.000388777
0.000834923
0.000656585
0.0080727
0.000808569
0.00522175
0.00678895
0.00792611
0.00785605
0.00102354
0.00118939
0.000875915
0.0013742
0.00309509
0.00304854
0.10547
0.135813
0.128389
0.144344
0.169311
0.124624
0.203333
0.024084
0.211223
0.0768684
0.0463217
0.00616824
0.0433475
0.0579707
0.123987
0.0232601
0.132383
0.0831344
0.0326689
0.0449594
0.00998464
0.0385852
0.0007805
0.000805531
0.00058716
0.00058848
0.000795961
0.000796032
0.000793044
0.000735199
0.00077969
0.000860104
0.000745298
0.000774617
0.000724629
0.000709246
0.00072426
0.000673385
0.000729765
0.000789995
0.00077741
0.000727947
0.00140281
0.00416532
0.0109476
0.000933464
0.000290865
0.000654125
0.0115597
0.000136722
0.0032475
0.000821748
0.000826552
0.00467012
0.000773209
0.000808269
0.00508056
0.279722
0.405835
0.324935
0.422316
0.356756
0.412353
0.411188
0.224779
0.00381089
0.00231506
0.00721679
0.00611153
0.00638559
0.00175529
0.00313221
0.00181885
0.00630739
0.00480819
0.00181202
0.00461107
0.022707
0.0321685
0.0987417
0.0674041
0.0258835
0.0397285
0.0959912
0.0969406
0.0919102
0.0924978
0.0144672
0.0906564
0.0941703
0.0188892
0.072737
0.0452659
0.0463249
0.0583727
0.000790899
0.00171292
0.00201408
0.00245174
0.00224327
0.000748024
0.00100894
0.00180949
0.00164391
0.00211301
0.00300314
0.00144131
0.00123232
0.000322333
0.0013467
0.00268536
0.00319575
0.0016532
0.0229039
0.0234444
0.0331473
0.0335621
0.0305832
0.0317377
0.0183082
0.0225634
0.0260201
0.0362007
0.0344628
0.0238935
0.0416344
0.0242917
0.0344378
0.0352863
0.0320365
0.0220681
0.0215174
0.0325198
0.0351192
0.0199037
0.000919402
0.000912782
0.000925088
0.000937025
0.000917336
0.000929074
0.000922118
0.00091091
0.000919333
0.000927095
0.000933084
0.000926773
0.000926962
0.000921265
0.000925938
0.000919306
0.538596
0.495889
0.420151
0.518522
0.416216
0.55123
0.311652
0.289349
0.205992
0.196851
0.201841
0.209667
0.469529
0.235999
0.254761
0.20278
0.360886
0.339977
0.0265521
0.0469576
0.0423238
0.0240098
0.0161104
0.00999371
0.0224777
0.0261762
0.0364827
0.0299398
0.0176579
0.0130581
0.0114935
0.0140734
0.0248393
0.0180336
0.00217092
0.000732455
0.000707638
0.00071578
0.00110085
0.000760914
0.000771878
0.000773033
0.000553896
0.000516474
0.00303345
0.00227375
0.00409296
0.000130151
0.000686089
0.00056193
0.000643889
0.000700748
0.00171106
0.00338385
0.0505523
0.0508102
0.047254
0.0310179
0.00957636
0.0299416
0.00327759
0.0255076
0.0316644
0.0422173
0.0107659
0.00947208
0.0199632
0.0232255
0.0125169
0.0136868
0.0132592
0.00719644
0.00680723
0.0105811
0.0159958
0.0159323
0.00534429
0.0142588
0.00638818
0.00610845
0.0049159
0.00830347
0.067271
0.0544011
0.036598
0.0613331
0.0756792
0.0264286
0.0185379
0.0506396
0.060591
0.0582149
0.021129
0.0153226
0.0356776
0.0381557
0.0324657
0.022658
0.030091
0.0135219
0.012321
0.00148205
0.0130285
0.0124299
0.0144462
0.0138111
0.00993444
0.011859
0.00601403
0.00510127
0.00695923
0.00445287
0.0160416
0.015738
0.00905187
0.0137927
0.0123732