/*--------------------------------*- C++ -*----------------------------------*\
  =========                 |
  \\      /  F ield         | OpenFOAM: The Open Source CFD Toolbox
   \\    /   O peration     | Website:  https://openfoam.org
    \\  /    A nd           | Version:  10
     \\/     M anipulation  |
\*---------------------------------------------------------------------------*/
FoamFile
{
    format      ascii;
    class       volScalarField;
    location    "18";
    object      omega;
}
// * * * * * * * * * * * * * * * * * * * * * * * * * * * * * * * * * * * * * //

dimensions      [0 0 -1 0 0 0 0];

internalField   nonuniform List<scalar> 
75457
(
32.0977
33.8456
25.5698
19.8354
24.7958
33.9604
27.5785
28.9391
16.707
16.6048
15.6972
18.9403
18.6322
16.7764
2.39985
2.38096
2.03918
2.39916
2.32769
2.05503
2.21697
2.24461
2.40905
2.38848
2.30097
2.5741
2.6031
2.24642
2.32282
2.41234
2.14037
2.43434
2.46792
2.03927
1.99551
2.08887
2.01945
2.55399
2.46415
2.0322
2.07913
2.00848
2.01815
2.71921
3.0346
2.41272
2.31895
2.70139
6.28291
3.50271
4.94374
5.77701
14.2509
4.77309
3.81531
4.01135
8.05445
8.93603
8.1299
15.7316
12.2706
6.76202
8.73096
7.18604
7.06706
7.99707
6.66955
8.28952
8.50283
13.9391
8.2004
14.548
7.76754
7.74012
8.06547
7.14602
7.59472
13.8646
9.59797
6.60918
15.7737
10.0934
11.4765
7.43663
5.73599
5.28097
6.07867
6.75623
12.1781
14.3066
7.39976
6.32112
12.4577
7.46551
5.69474
3.37727
3.67687
3.91173
24.0894
6.8556
8.41346
11.0489
22.1336
20.0089
39.5955
41.0934
20.8222
18.6981
20.457
7.25766
5.64803
15.735
15.6783
13.4264
5.31848
9.84979
22.1496
9.21728
8.61213
24.2504
6.03732
6.75591
6.70004
6.41197
7.6014
7.58168
15.3634
6.45564
11.445
7.20033
6.85811
6.92292
6.55837
6.07816
3.33264
15.3448
7.04217
5.45968
5.72071
24.6995
4.4096
5.39749
6.65379
4.33983
4.56247
5.9779
7.10123
8.24594
17.9617
5.08111
31.9215
9.2955
5.11379
4.13591
8.98238
13.4924
4.35666
26.4643
5.31137
7.07481
27.2997
5.37316
8.20843
6.0456
6.2613
6.53322
6.22529
6.40042
5.79328
5.7919
6.07593
6.29521
6.02244
6.14445
5.95998
5.82092
8.69595
7.93148
7.59377
11.6499
4.72206
22.3351
3.87215
12.1358
28.196
5.17168
3.81421
9.6187
17.8821
39.5278
7.91014
7.89377
8.54129
13.0018
6.36393
24.6117
3.99475
4.58456
4.05
4.38888
3.89272
7.44611
8.64992
12.8631
6.21895
7.15316
12.8748
11.749
12.6324
12.7559
11.1738
11.457
23.6816
26.4272
9.59191
11.0339
25.3148
11.0657
27.7043
25.8397
26.5038
8.5352
12.2017
23.3058
10.6399
11.4059
27.7466
13.1731
7.8624
20.0598
5.04757
4.97555
19.7331
8.34601
9.57633
7.23878
9.34448
4.49722
4.79568
5.03804
5.28642
9.08177
21.6276
7.1979
16.5939
10.1534
6.99021
7.34452
10.9477
24.7972
10.521
21.918
9.77932
19.7642
8.07401
14.0825
6.31441
4.57716
5.30209
3.27139
3.77892
4.11031
4.65486
6.07563
9.98275
18.1966
11.5875
30.2517
17.2895
20.0216
26.6906
17.1479
5.92085
6.0679
10.0566
6.10779
10.4765
11.4496
17.4194
10.188
9.4808
16.1926
9.74222
15.3293
7.42899
14.7028
6.78876
4.18073
4.1711
5.45677
5.04245
5.45596
5.09723
17.4917
14.9155
23.2654
15.5407
8.36114
8.15769
21.6276
8.49902
7.88984
21.7116
3.3356
3.26562
1.60873
21.7116
2.72965
2.2625
21.7116
1.34653
2.62567
4.48687
2.52507
8.59649
7.18596
4.15382
5.54884
6.26061
22.387
8.67584
4.07755
4.09041
11.4015
22.387
4.50617
4.6407
5.17483
8.12674
12.9359
10.9983
9.78638
11.2366
25.8531
5.66691
5.82312
8.74282
7.88787
31.2847
9.89489
8.41003
29.8668
6.4421
5.85135
18.5105
6.78155
10.0956
6.14346
18.5105
5.78918
5.82683
9.76603
6.60857
4.85603
8.92599
8.26034
10.1653
27.4173
8.36383
5.6019
15.6923
22.8694
16.0124
22.4282
4.5348
4.24348
5.51925
5.16077
7.51046
6.55922
11.1848
6.35041
6.98192
8.85748
23.64
12.8546
11.6889
7.77554
19.1038
6.6895
6.31415
7.1621
15.9208
15.9208
18.3481
4.1983
8.65642
8.80644
4.84379
4.2724
8.22477
4.52191
4.57257
4.42138
4.41138
4.5859
4.60789
4.51065
4.57174
4.59981
4.63878
4.52286
4.4312
4.51858
4.4856
4.44916
4.55899
4.44272
4.41635
4.36275
4.36146
4.44067
4.37695
4.45676
4.38905
4.49388
4.47621
4.36184
4.42557
4.40987
4.46073
4.44852
4.25712
4.32178
4.33655
4.37337
4.31455
4.35013
4.38561
4.43508
4.26128
4.30386
4.26148
4.25615
4.32266
4.36983
4.33658
4.41926
4.34432
4.36833
4.33948
4.3725
4.32886
4.35949
3.72237
2.83652
2.85309
2.84096
2.83632
3.53704
2.86488
2.84493
2.73374
3.80209
2.68398
2.78087
2.78188
2.83319
2.64967
3.41314
29.4141
16.9399
16.3477
16.9399
13.0668
13.2363
13.2779
14.9924
13.0412
13.4219
29.4731
31.5317
27.2837
18.5356
13.8962
10.9862
3.5717
3.51435
3.77454
3.91395
3.71093
3.62979
3.55988
3.51329
3.60174
3.63174
3.66249
3.85345
3.82702
3.60426
4.68767
3.72783
3.64788
3.65397
4.55606
4.61301
4.57884
4.50772
4.47794
4.51541
4.52859
4.54393
4.54233
4.52555
4.55686
4.62799
4.54442
4.58448
4.60702
4.62429
5.83142
5.59684
5.91687
5.59314
5.36328
6.01475
6.36152
6.0368
5.86407
6.0369
5.87947
5.75871
6.0148
5.73975
5.81169
6.24672
6.34053
4.71285
4.86737
4.67357
4.70451
4.62681
4.5949
4.68196
4.80551
4.60522
4.50207
4.72461
4.5584
4.49581
4.50842
4.57695
4.44432
4.62119
4.53352
3.98118
4.42641
5.26686
3.55901
4.64998
4.00916
4.49715
3.77832
3.61173
4.20634
5.31474
4.78504
3.97949
4.28719
4.08442
5.11917
5.28644
2.20945
2.1724
2.20835
2.4234
2.07597
2.51065
2.21625
2.18081
2.18731
2.62478
2.28477
2.1758
2.21572
2.14126
2.66198
2.62754
2.84379
2.57712
2.93633
2.91346
2.90303
2.71861
2.64709
2.95031
2.97225
2.93404
2.67957
2.55833
2.56052
2.83106
2.67856
2.77596
4.25303
4.26965
4.29353
4.49856
4.54878
4.28901
4.29295
4.49546
4.42336
4.47027
4.26929
4.5317
4.016
3.45517
4.34172
3.3005
4.23887
3.93545
4.19146
4.17557
4.18893
2.99948
2.89028
2.99925
3.34781
3.32888
3.02023
3.3473
2.04629
2.75677
2.01383
2.52089
3.84983
3.5286
4.70809
3.35809
3.23544
2.61814
2.33765
2.15095
4.11638
2.29181
2.44162
2.73989
3.64751
3.62718
3.65145
3.68505
3.80588
3.70227
3.64929
3.60277
3.58897
3.67727
3.70774
3.68054
3.69591
3.76367
3.76794
3.67968
3.6436
3.71766
3.59092
2.5334
2.50282
2.22986
2.82684
2.46401
2.74579
2.64438
2.32868
2.50831
2.18259
2.70681
2.58261
2.46487
2.47578
2.94178
2.71523
2.80816
2.89494
2.72623
2.811
2.60194
2.52917
2.60377
2.42113
2.46537
2.72293
2.57741
2.51372
2.56165
2.34327
2.40386
2.54138
5.00804
6.21096
6.36773
3.93829
3.94328
5.38901
4.68948
3.33935
3.65594
6.91756
5.56592
6.13997
5.8795
6.71036
6.84335
6.67185
7.27832
6.50014
6.94773
5.95781
5.99709
7.24458
9.17001
9.01911
7.87071
8.68621
8.6207
7.34963
6.45734
7.67624
7.47892
7.23028
2.73125
2.77114
2.99706
2.8579
2.86002
2.66273
2.79588
2.82661
2.80962
3.47685
3.89762
4.34958
2.61727
3.79477
5.17611
3.58053
4.41519
2.33072
3.3536
4.7185
6.11042
3.2631
3.67596
9.37323
6.85829
4.04029
7.2879
4.29576
4.84129
4.60829
4.7897
5.17925
5.28315
5.94276
6.49708
6.84117
6.67105
5.70641
6.96107
6.27169
6.88643
2.08514
2.14006
1.87217
1.9017
1.96102
1.91255
2.03618
2.06107
2.48831
1.99951
2.18144
2.24749
1.8645
1.94377
2.31997
1.93403
2.17243
2.13889
2.06078
2.46737
2.54497
2.01457
2.6137
2.33027
2.79984
2.355
2.33099
3.00726
2.85383
2.21607
2.59187
2.83902
2.64599
2.61071
2.95348
2.23689
2.42206
3.16819
2.70341
2.32207
2.0851
2.11285
2.80006
3.55902
2.38277
2.45589
2.93357
3.34325
2.41149
2.41801
2.57139
2.26839
2.27907
2.75807
2.87296
3.29742
2.32734
2.31844
2.55826
3.31155
2.4794
2.37438
2.63882
2.36625
4.17639
5.5218
2.22931
2.44404
2.75408
3.12614
2.44066
2.57265
3.00195
3.69279
4.28027
3.91774
2.6145
2.65404
2.37764
3.08209
2.74333
2.72256
2.70592
2.48715
2.55969
2.53392
2.43142
2.35754
2.51583
2.50407
2.58978
2.56061
2.36971
2.61875
2.66351
4.44532
4.73091
4.83824
4.53116
4.68596
4.73602
4.84768
4.60723
4.69766
4.81029
3.03215
2.671
3.01481
3.38227
2.55138
2.53554
3.34131
4.02854
2.60583
3.28605
3.15743
3.16874
3.53704
2.60157
3.42566
3.17251
2.53691
5.76339
6.07808
5.92353
6.29191
5.98334
5.67983
6.21857
5.91571
5.75057
5.71629
5.86351
5.74666
6.03389
5.73595
6.11185
5.60617
5.70374
5.51975
5.67908
5.5439
4.76754
4.83168
4.74816
4.77732
5.02185
5.15286
5.60128
4.91669
4.92358
4.79498
5.4788
5.53124
4.7578
4.86394
5.09214
5.81776
9.1794
7.69238
6.82766
7.49167
11.6896
9.12591
12.0588
11.4772
9.47396
9.17679
11.8672
10.5751
10.2043
2.93441
3.16205
2.94785
2.79071
2.71229
2.76281
3.10282
2.98645
2.79655
2.82369
2.54331
2.85599
3.8517
4.25358
3.98972
3.89649
4.18804
4.10066
3.76576
3.73468
3.70115
3.77127
3.7972
3.76648
3.85293
3.82546
3.91888
3.85089
4.02514
3.85418
3.84951
4.17112
4.15611
3.93521
3.9277
4.19055
3.09006
3.60827
3.98844
3.65697
2.8598
2.8644
3.5378
2.68498
3.10222
3.03986
2.7862
2.76401
3.07002
2.84413
4.77011
5.18423
5.66693
5.09225
4.94655
5.17526
4.90889
4.78391
5.32313
5.32127
5.76023
5.55916
6.0179
5.9367
5.96043
5.6047
4.4952
4.91579
4.63358
4.40416
4.39603
4.48208
4.41648
4.3867
4.41513
4.5075
4.58859
4.48155
4.56136
4.56967
4.80464
4.64483
13.4695
11.6824
12.7615
11.977
14.4708
11.6196
5.81624
6.45412
5.95224
6.35055
6.12702
6.93065
8.8452
10.735
11.1476
8.43637
10.3024
10.4224
6.87352
10.0387
6.67519
7.63098
7.34508
7.07438
6.83749
7.15354
7.73219
7.37595
6.89936
7.31327
7.38328
7.05761
7.49255
6.96476
7.13308
5.01227
5.33663
5.32427
5.36955
5.97942
6.35011
7.20803
6.09938
7.55232
7.99526
7.54337
6.72744
8.56052
9.06221
3.73698
4.13658
3.62911
3.72134
3.59962
3.80956
3.42499
3.23896
3.95508
3.47808
3.61502
3.23117
3.39025
3.22184
3.24667
3.19779
2.39092
2.43521
2.33193
2.35793
3.60577
3.69478
2.19781
2.87736
2.90339
2.19922
3.50577
3.30637
4.12285
3.24488
3.25542
3.76387
3.65995
4.38978
4.51787
2.6707
3.39998
3.0829
2.86063
2.76128
3.87455
3.18531
3.35482
3.5913
3.42746
2.60022
2.63136
2.94197
2.69179
3.56449
3.34594
2.77114
3.07634
2.85723
2.96572
2.63373
2.73993
3.0735
2.78452
2.78332
8.25965
7.18874
7.20196
8.12774
8.51457
7.54654
7.38171
7.57604
7.5433
7.47071
7.61363
7.44634
8.21833
7.98657
8.0743
8.3277
8.04068
7.83726
7.39992
7.85819
3.11807
3.07946
3.04284
3.01218
3.04584
3.20326
2.95788
3.04593
3.1809
3.05363
3.02204
3.01595
4.78921
7.09108
24.543
5.42116
18.813
6.39949
11.471
20.9173
22.5229
5.15048
11.6152
14.3994
24.1388
6.68026
11.4641
3.9708
8.40038
5.28785
4.73212
8.28597
9.80199
7.73621
4.68162
3.98507
3.91487
12.5275
14.5201
13.8553
15.4308
3.87643
4.02645
3.87161
3.72273
3.84976
5.65172
6.41066
5.27399
1.98923
2.26327
1.86983
1.97604
1.85492
1.82995
1.82369
1.84807
1.84958
1.85171
1.99363
1.89255
1.88366
1.8581
1.85783
1.87265
5.57776
5.66087
6.05541
6.14705
6.53242
6.73353
5.86852
6.90576
7.07818
7.63106
8.33009
7.44659
3.83065
11.6913
13.685
9.71232
12.5294
4.59696
2.80595
9.65233
2.89318
8.53382
16.8077
4.81792
8.1617
4.11679
9.9513
19.0159
10.1312
2.71719
4.43164
5.23455
19.9734
4.54647
6.64662
8.05616
12.7411
4.15142
8.05186
3.71578
21.1999
5.85533
7.10177
25.3765
5.36844
8.47085
7.77782
7.70065
16.2242
5.58771
6.54517
11.1493
15.1733
4.45362
3.95295
8.63117
3.85583
8.74287
16.1544
8.53611
3.47017
3.86019
14.9966
9.30003
3.81238
3.53805
4.38257
3.65549
2.61514
3.07509
2.77849
3.73456
3.87552
2.34441
2.47625
2.50065
3.45361
4.27331
2.85108
3.08169
2.47078
3.39701
3.54171
4.3447
3.67737
4.09473
4.13088
3.91339
3.95072
4.67889
2.78982
3.62834
4.25608
3.9814
5.959
8.52715
5.25976
11.8942
11.5776
10.985
10.7645
12.2764
10.6207
10.1893
10.7775
11.1104
11.0535
12.3954
12.9162
10.206
10.4347
10.8143
11.2209
10.9101
12.3863
11.616
10.8034
8.16436
10.1571
6.94777
6.77558
10.9369
10.9658
18.2211
15.8251
6.61751
7.01038
8.06785
10.3898
11.4068
15.7436
8.13989
10.1724
6.52314
6.59893
7.3651
5.16159
4.47221
4.38962
4.05295
11.3576
15.2733
9.96526
12.4888
4.88307
4.43062
11.5509
7.43743
4.75175
7.23547
13.5189
8.28701
6.441
11.3641
6.42177
11.3985
2.33807
2.31702
2.74922
2.38135
2.70635
9.11976
11.6382
5.10984
5.51515
3.79011
3.51232
2.72237
3.55675
3.321
6.43895
3.18003
2.63728
2.37625
3.2504
6.28974
5.83476
6.5971
6.43679
6.28992
7.67554
7.17521
6.75238
6.58683
9.30095
9.81846
10.4048
9.93073
7.54409
6.73815
7.37905
24.4813
22.8348
24.0491
26.0453
30.4431
27.4808
30.336
43.4262
40.9921
36.5483
32.3049
31.6982
44.7037
33.7528
32.5195
31.2404
38.9019
38.7572
39.4793
29.3602
7.94479
9.57544
7.81848
10.101
6.26067
6.67377
4.25146
5.27193
11.9363
8.13117
16.9932
9.2878
4.66563
4.44392
14.0596
11.0421
16.9479
8.78511
19.0119
6.52596
30.6401
37.522
41.4722
55.8866
42.0922
29.8297
24.6174
39.5087
47.1109
41.9993
45.3362
35.6073
62.5733
41.0425
79.0113
80.9929
55.2753
3.22799
12.2164
7.03729
32.4867
6.12822
5.92
8.62623
7.83246
40.1078
7.67005
1.9748
21.5643
12.123
11.5938
15.2061
14.5435
13.1314
11.6022
10.936
10.6827
14.0159
15.1382
12.5948
12.9306
12.8401
14.1864
11.5747
12.8931
12.815
12.0095
15.4356
11.216
11.3262
5.80101
5.69042
5.4864
5.62406
6.31641
5.86556
6.3035
5.73508
5.5113
5.63114
5.58641
5.46874
5.40985
5.36212
5.82382
5.67877
5.59467
5.49526
4.82398
5.26025
4.81172
4.98453
5.09185
6.30951
4.77552
4.95548
6.08097
6.95605
5.13449
4.8484
5.0769
5.9122
5.16059
6.01656
6.43396
6.43547
6.05745
5.68374
6.54666
5.57243
6.33726
6.20911
6.35395
5.60997
6.2352
6.2195
6.25678
3.14471
3.21753
3.18113
3.32372
3.07452
3.03331
3.15691
3.13442
3.49594
3.65089
3.13
3.14339
3.19296
3.30327
3.50229
3.42454
7.12238
7.17553
7.31163
7.11965
7.08473
8.11345
6.97028
7.06671
8.47747
7.27732
6.59402
6.42182
7.12198
7.85513
7.68821
7.2231
7.25899
21.8378
21.9962
16.7871
18.1162
19.6366
21.9353
25.1972
25.5061
18.64
19.7753
25.5625
30.1078
24.8681
26.6352
23.7594
25.1516
24.129
7.32466
5.82955
5.39283
7.78388
5.2315
13.7482
20.2434
5.36319
11.3875
11.4188
8.68596
10.3114
11.5907
5.79406
3.16374
10.0478
22.5995
4.06796
8.27389
6.79217
5.63564
4.63737
4.46868
6.87265
6.56145
5.27467
5.16509
4.92673
4.81699
4.77839
5.00232
4.65113
4.49292
4.85917
4.59299
4.63874
4.86156
5.26121
4.68567
4.6837
3.883
3.57486
3.28835
3.53166
4.12008
3.435
3.37251
3.3703
4.31435
3.32897
3.46635
3.60253
3.89248
3.38789
3.22595
3.1482
5.44836
4.44169
4.84412
5.75229
4.86719
4.40785
9.02742
5.93292
6.27611
6.20739
14.2338
8.32662
5.03857
9.22413
4.46132
7.31764
9.11425
14.0802
16.6264
10.3523
14.7835
17.1943
10.7575
15.4423
11.3066
7.90088
5.86313
4.56173
14.6873
9.78854
11.1486
3.04323
4.36505
11.4922
3.90595
10.4296
9.51495
3.80952
3.51012
3.29088
8.10987
5.51687
5.4993
5.42221
6.52193
5.54913
5.56304
6.36356
5.65507
5.60325
6.42386
5.62108
5.50577
7.68765
6.83623
10.2552
6.08455
6.99002
8.57957
10.4482
9.08801
7.96701
7.08207
5.5435
4.42296
4.51083
4.69446
8.38571
6.9451
7.26249
6.90183
6.49604
4.19098
6.17565
7.6003
7.67325
18.1965
17.6136
6.36889
6.44162
6.89922
20.6456
8.45748
12.1859
7.49035
3.31608
9.043
14.799
6.13629
4.82972
4.05753
9.67554
8.43563
14.3107
16.3736
6.69623
9.1492
10.0113
4.15574
6.11626
5.69642
4.40262
4.38465
9.53287
8.63661
10.0345
15.7179
6.92628
10.2658
4.42222
4.11454
7.73495
4.27734
5.93499
6.32552
5.33937
5.98477
5.54815
5.35606
5.19072
5.72697
5.02279
4.8275
4.46494
4.38816
4.70661
4.35108
4.29115
4.67279
4.61059
1.9822
2.01192
2.04059
2.01886
2.00374
2.14262
1.96205
1.95047
2.00333
1.97702
1.94721
2.13389
2.00064
2.07288
1.9766
2.07639
1.98633
2.00981
2.02841
2.35727
2.18534
2.00955
2.39146
2.15759
2.10099
2.08654
1.92152
1.75293
1.68695
1.92985
1.98913
1.66366
1.66819
1.80616
1.82869
1.66478
1.72213
1.71103
1.71147
1.70701
8.12932
7.54815
8.33307
8.97051
7.91209
8.7175
8.40381
7.34501
7.69693
8.86417
7.54245
7.32688
7.42954
7.03286
9.59961
8.25286
9.35531
3.94663
3.46504
3.95795
7.66141
6.33276
3.46776
3.75794
3.74497
3.30419
4.62673
4.92814
6.85083
3.26526
3.19008
5.23193
6.73404
2.69707
2.83294
2.81683
2.79903
3.02794
3.83475
2.95544
9.60464
7.46654
3.44004
3.13022
4.72298
5.60208
8.19874
6.02257
6.23345
7.11062
7.93983
15.19
20.971
10.6973
20.0506
4.37202
7.38242
4.16326
1.83351
1.78739
1.84163
1.79154
1.72863
1.85426
1.79905
1.7729
1.93688
2.00429
1.901
1.85304
1.79049
1.86355
3.15462
3.15678
2.84628
2.82092
4.07026
2.62677
2.79861
3.74891
4.41208
3.78695
4.69234
3.41371
3.12182
3.91664
2.55112
6.64556
2.58903
19.3013
19.3013
3.88645
19.3013
5.07505
4.98965
9.93662
5.41151
6.25714
5.05569
4.29892
3.92696
7.35222
4.28234
4.41986
5.62137
20.39
24.2411
25.6168
20.3904
21.2807
21.4983
23.7106
19.6307
23.4756
19.5383
10.0163
10.693
7.67843
11.8535
4.30606
3.91574
3.51803
4.81162
7.2001
8.77541
10.5102
10.0357
8.79684
3.69548
3.87256
2.77758
7.99677
9.52526
3.86288
3.76496
3.65737
4.0578
4.03618
7.01255
3.97293
4.80672
4.23678
12.2309
5.63052
3.31885
3.66327
14.374
6.12074
12.2309
4.96644
3.01744
3.05591
5.5502
6.28385
3.19154
7.99567
7.87143
7.45924
8.00137
7.5953
7.28374
7.6695
7.53823
7.09035
7.45139
7.15728
7.50019
7.77955
7.52914
7.15639
6.78205
7.02011
6.74223
7.22843
7.93925
7.91175
7.52774
7.77747
7.31807
7.22144
6.53387
6.05284
6.35482
6.12252
7.19959
7.27028
8.25408
7.87276
6.06172
6.02656
6.15188
7.13343
29.2614
29.9928
24.9818
23.6183
38.8025
31.9792
36.7127
30.9434
29.011
45.8807
35.6811
37.5557
37.195
44.015
58.1722
55.9105
4.68212
4.88363
4.87857
4.6607
4.62262
4.66615
4.69
4.6102
4.81118
4.80533
4.55148
4.71906
4.5628
5.44968
5.18886
5.49021
5.47032
5.39002
5.09937
5.76485
5.53689
5.71636
5.4744
5.63349
5.75745
5.34518
5.49834
5.36563
4.87815
4.95105
4.75353
4.82713
5.15682
5.06634
4.73616
4.76233
5.10685
4.91991
5.00962
5.04315
4.93422
4.95617
5.09145
5.26761
9.95912
9.91213
9.7289
9.10364
9.2557
9.61244
8.94502
8.78708
9.22917
9.37228
11.2152
11.0213
9.50652
9.18781
9.32352
9.40338
10.8548
9.75692
9.91503
9.73062
8.26777
8.09314
7.69881
7.31144
7.93676
7.75199
8.58579
7.90819
8.83301
6.6298
7.07635
8.66613
7.3979
8.14966
8.66451
9.65445
8.95189
8.84515
9.83949
10.0188
10.4329
9.35635
9.75644
10.7252
9.58642
11.4173
12.1885
11.546
9.78021
8.97395
10.3292
12.5604
11.0534
12.8426
11.9795
12.1896
10.1458
13.5955
12.1919
11.1589
10.7148
11.5609
12.4189
9.96823
9.72803
9.56523
10.3417
11.1165
3.39231
3.25073
3.21842
3.18687
3.57906
3.54463
3.4914
3.62423
3.65768
9.1769
9.57303
8.48622
8.52138
9.15265
8.35519
8.26518
8.70172
7.93601
7.77655
7.86187
7.8269
8.09691
8.87713
8.3433
7.89889
8.18983
8.3775
8.70896
9.23817
7.88137
8.60691
3.7509
3.80427
3.74516
3.75655
3.77379
3.91353
3.80999
3.64801
3.79451
3.70204
3.7925
3.66639
3.8063
3.62501
3.63512
3.66927
3.70717
3.68336
3.70126
3.68403
4.98021
4.76897
4.87082
4.67767
5.01566
4.76729
4.845
4.94317
4.87526
4.78233
4.81074
4.62392
4.69586
4.7398
4.69932
4.93211
4.83769
4.95235
4.63387
4.82189
4.68786
4.92187
4.65391
4.51089
4.59761
4.61955
2.78885
2.9849
2.98794
2.83455
2.6388
2.69432
2.47187
2.57744
2.94515
2.53873
3.00342
2.73759
2.67644
2.41394
2.45668
2.67425
2.48218
2.48133
2.47297
2.49047
2.50759
2.55286
2.54462
2.68039
2.48779
2.54743
3.22558
3.27768
3.36874
3.36924
3.14898
3.17953
3.20207
3.6681
4.13737
3.6717
3.61322
3.2223
3.27869
3.29842
3.36121
3.332
3.48022
3.27842
4.22568
4.30457
4.47525
4.25467
4.16327
4.39334
4.41446
4.13176
4.14778
4.25332
4.33475
4.15119
4.08796
6.45845
6.97928
6.53085
6.21803
6.53983
6.93338
7.44595
6.79937
6.75262
6.42603
6.58517
6.99662
6.63757
3.67644
3.12197
3.50099
3.64657
3.43556
3.24674
3.4643
3.50201
3.46933
3.72439
3.7246
3.60605
3.69126
2.55072
2.2465
2.24675
2.27259
2.28248
2.53119
2.39569
2.51994
2.27237
2.27834
2.36181
2.35197
2.26718
2.26881
2.32423
2.2861
2.22827
2.27326
2.35886
2.38581
2.27897
2.29758
2.49284
2.47663
2.7471
2.34741
2.4311
2.44526
2.33911
2.43712
2.36759
2.56127
2.53964
2.4919
2.47667
2.50894
2.56755
2.55292
2.47052
2.44682
2.52794
2.59866
2.5068
2.5355
2.61313
5.54446
5.8697
5.88238
5.27852
5.42318
5.36203
5.55651
5.161
5.20004
5.35954
5.13551
4.74772
4.6571
4.9203
5.10791
5.3032
4.85239
5.10096
4.9389
5.15613
5.17571
4.87043
4.88367
5.01032
5.58067
5.67259
5.7098
8.24158
5.69568
5.34951
5.45268
5.44441
5.54592
5.69333
4.60102
5.02577
5.21776
4.88506
5.94856
4.50243
4.87331
4.95074
5.41298
4.81998
5.10393
4.83287
4.87406
4.9297
4.69482
4.63623
4.67379
4.85943
5.11185
5.021
5.21989
4.82848
5.06563
4.50691
4.57079
4.32367
4.35965
4.51654
4.65035
4.63346
4.67524
4.97123
4.97473
4.6603
4.58068
4.72082
4.8282
4.76525
4.67359
4.83033
4.82217
4.7671
17.117
15.8006
19.7465
14.2164
14.5046
18.3711
19.8414
16.382
18.5637
17.3099
14.4891
18.6675
15.6231
4.13554
4.21029
3.93272
4.01769
4.07393
3.87057
3.82635
4.00253
4.02475
3.92429
3.86931
4.21906
4.10944
3.84542
4.06593
4.02893
4.51094
4.06912
4.64842
4.45161
4.02715
2.40205
2.41512
2.40043
2.44956
2.43989
2.41617
2.49037
2.50029
2.43
2.36238
2.51553
2.54191
2.36458
2.41547
2.37795
2.42532
2.46511
2.46596
4.34669
5.3246
4.29238
4.65416
4.69158
5.0285
3.68537
3.59589
5.04081
3.71346
4.12236
5.47321
4.25201
4.05937
4.12526
3.92246
3.65207
4.29184
4.69551
3.6387
4.69654
4.07129
3.84981
3.62361
4.21077
4.75927
4.76892
1.77543
1.84307
1.85602
1.74196
1.88687
8.08307
8.3758
8.56149
6.3971
10.2166
6.2042
11.434
13.5111
14.6266
12.0416
15.9952
12.9163
11.3116
13.5541
7.79193
6.14429
6.05849
6.25264
6.12231
4.97332
3.99687
4.49842
5.70575
5.08998
3.99037
3.68729
5.63487
6.14864
3.7754
3.7788
4.32063
4.49971
4.30679
4.91987
6.33237
7.31041
6.56365
9.72038
12.7862
2.23868
6.84686
3.39018
4.40176
18.9571
31.2451
21.3233
21.3784
9.82374
4.58402
7.97098
19.9132
18.3356
6.90714
4.96083
5.21527
4.27861
4.09393
4.22805
3.90041
4.02348
4.55963
5.66784
5.29428
3.60413
4.38009
5.17102
4.48791
5.18247
4.00983
4.87349
4.73678
3.70064
3.76602
4.65154
3.4696
4.57722
5.0324
5.38036
5.14944
3.5372
3.41455
3.56186
3.6146
4.08413
4.03914
9.73805
9.95072
9.95371
9.31154
9.35043
9.62028
11.3085
9.10646
9.92728
10.6843
6.83385
6.77
6.94474
7.93457
10.2093
8.45917
10.2525
10.0759
7.01182
8.14661
5.20978
7.10112
3.63604
3.62603
3.60452
3.56761
3.57011
3.50655
3.58798
3.62446
3.59528
3.59635
3.54153
3.49501
3.4911
3.60258
3.58026
3.52828
3.55686
3.52909
3.44653
3.49483
5.72303
5.92719
7.03503
4.64854
5.61503
4.74823
7.1437
5.09179
5.48438
4.45985
4.52501
5.44164
4.67546
4.52211
4.87291
9.55688
8.68097
8.92161
8.76418
10.0435
7.84934
9.34156
9.58351
3.03153
3.14803
3.11848
3.14406
3.10279
3.09795
3.13698
3.22603
3.06148
3.06038
3.16546
3.07906
3.57392
3.67199
9.85077
5.40635
3.40607
4.04325
9.34283
6.95554
9.58472
10.07
15.2335
7.52082
11.5471
17.3888
7.17413
4.46799
4.45318
4.88693
2.99459
3.04174
3.00774
3.02163
3.08517
3.03922
3.00044
3.16704
3.08592
3.0775
3.1286
3.18809
3.05478
3.04131
3.07044
3.17646
3.22589
3.10573
1.88647
1.88909
2.04351
2.08981
1.95167
2.0403
1.87024
1.88939
1.93854
2.16196
2.01489
1.92699
2.36259
1.96075
2.00922
2.02584
2.03482
1.91941
1.92577
2.09558
2.02674
1.90658
15.8262
14.4473
16.3195
18.9282
15.1688
18.0746
15.91
14.3575
17.0396
18.8473
18.489
17.0447
16.7716
15.6475
17.0034
15.2593
7.096
6.8392
6.69717
7.58436
6.20419
5.98977
6.77524
5.94295
5.20837
5.37664
5.61413
5.50566
5.7235
5.14566
5.36371
5.58975
5.31029
5.38805
2.26603
2.70239
2.66661
2.28367
2.1589
2.05574
2.43125
2.50766
2.3997
2.2787
2.19096
2.21175
2.11747
2.06773
2.22175
2.12026
3.89968
3.87059
3.9482
3.88967
3.7364
3.89351
3.87519
3.88866
3.91184
3.8992
3.86292
3.91566
3.90286
3.87631
3.82565
3.81965
3.78744
3.78465
3.73221
3.74243
8.81519
8.61442
7.62251
6.60038
5.01518
7.14211
5.75692
6.24619
6.70111
7.94864
5.0814
4.84975
5.86362
6.06858
5.33321
5.61246
3.77795
3.83641
3.37735
3.45802
3.09116
3.4729
2.81616
3.31556
2.84855
2.63711
2.78556
2.63586
3.53838
2.96086
2.45456
3.21525
3.9745
2.11784
2.04881
3.38987
3.18647
2.92409
2.01247
1.93122
2.60725
3.04989
2.24776
2.1395
2.57037
2.82606
2.83595
2.84892
3.07376
3.11976
3.06614
3.1306
2.80771
2.88083
2.69167
2.76547
2.79453
2.7498
2.98172
2.97599
2.72763
2.87154
2.94524
3.71148
3.95652
3.36923
3.12175
4.42929
4.02746
3.47639
3.46085
3.88282
3.11173
3.15688
3.06123
3.08075
3.22738
3.24924
3.09555
3.20985
3.14991
3.61747
3.31423
3.21326
3.23828
3.30406
3.31271
3.27123
3.20573
3.32696
3.30719
3.24696
3.32259
3.23825
3.25299
5.92976
5.63022
5.69435
5.83124
5.56909
5.751
5.85254
5.77188
5.68623
5.7057
5.68461
5.52672
5.50929
5.51481
13.302
13.6478
17.8938
17.4837
18.3758
18.4896
13.2141
11.8369
15.4284
16.3645
13.5943
16.5857
14.4314
15.0427
1.93235
1.97669
2.02362
2.00254
2.28179
2.42247
2.30401
2.44654
2.0074
2.21907
2.17889
2.17698
2.29027
2.16092
2.03819
4.83989
5.63298
3.89655
2.3972
4.20506
5.44124
5.94256
3.60538
3.98878
3.63129
3.67746
4.01336
3.69937
3.75802
3.62026
3.48038
3.7437
5.13923
5.38442
4.51217
4.37694
4.05023
3.76586
4.35797
4.85743
3.78623
3.79643
4.34324
3.77433
3.668
3.69896
3.55326
3.55056
3.55991
3.68426
3.61075
3.57272
3.62966
3.44248
3.28041
3.30126
3.61231
3.71707
3.8122
4.53302
3.23553
3.22479
3.22252
3.75035
3.09315
3.12182
4.21983
3.96089
3.60374
2.88813
3.42523
2.59792
2.43189
3.59478
3.41389
3.40706
3.166
3.65155
2.37436
3.04406
2.49587
3.44752
3.71966
3.18446
3.5004
3.84628
4.05845
3.47982
4.041
3.81084
4.17298
3.96369
4.28108
4.24351
4.13936
3.45281
4.048
3.22896
3.27348
3.94707
3.73396
3.59768
3.42282
4.07961
4.11531
4.1786
4.11246
3.97887
4.09437
3.99717
4.03091
4.03823
4.02204
3.95824
3.97824
3.97601
3.93127
4.03146
4.03885
3.96944
3.93722
3.94661
3.91983
6.88995
6.5904
5.31441
5.70336
7.31657
6.24746
5.53262
6.55718
4.9364
5.05547
5.02239
6.70302
7.84233
7.43098
7.49927
7.55258
7.66693
7.45785
8.02026
7.87408
7.33294
7.36741
7.05146
7.10723
7.03859
7.95733
7.6546
2.28701
2.35867
2.30684
2.28325
3.05868
3.03618
2.97058
2.8361
2.84934
2.47255
2.67984
2.2131
2.23494
2.61096
2.59023
2.45008
2.90249
2.89215
3.32746
3.10657
2.95596
3.84712
3.83043
4.29036
4.11703
3.59452
3.95918
3.72872
4.04414
6.89778
6.13327
6.2666
5.89251
6.4547
7.90392
5.98954
6.07506
5.90458
6.11736
6.5936
8.08051
6.13817
14.6891
15.7081
15.183
12.8589
13.863
12.9482
11.9654
9.24516
9.74086
15.7552
14.9588
15.9992
16.1465
9.67233
9.64494
13.4525
11.574
10.0587
10.8103
13.5283
4.75894
4.73742
4.63157
4.7151
4.53658
4.46818
4.9466
4.5898
4.65545
4.58187
4.9376
4.65222
4.66837
4.91375
2.72888
2.09033
2.13955
2.13869
3.7582
5.60856
2.98347
2.76199
3.49177
3.99588
2.17061
2.397
3.26233
2.81816
2.05317
3.18798
2.58158
2.22375
6.43858
6.98891
5.37299
5.37266
6.43772
6.83119
6.34263
5.40437
5.39805
5.66568
5.63358
5.37612
6.47858
6.90101
7.26281
6.17981
6.57952
5.83462
5.851
5.42896
29.9412
6.93565
14.0357
7.08338
9.39557
2.70664
2.65665
2.87823
3.00624
2.44224
2.56694
2.47912
2.41313
3.20008
2.94103
2.85704
2.80548
2.42498
2.63033
12.0835
12.245
12.7891
18.2092
15.6307
18.0989
6.08255
7.52939
11.5992
15.3557
6.24469
4.76499
4.87243
4.95516
4.88665
4.62539
4.6408
4.75945
4.73783
4.86629
5.01251
4.87707
6.93221
7.04315
8.26362
7.87264
6.59985
6.16463
6.19569
7.6886
6.80171
6.43643
6.48689
5.93494
7.69522
8.28807
7.53585
5.60267
5.72068
5.50557
5.44258
5.62744
5.50814
5.22518
5.32851
5.28136
5.2848
5.53221
5.79156
5.39756
5.50223
5.43824
5.38917
5.69512
5.83142
5.40728
5.6282
5.51361
7.85062
7.4746
7.50344
7.0855
6.84575
6.39952
7.68301
8.15822
7.2017
6.51113
5.94132
6.84469
5.94669
7.42472
5.90597
7.06888
6.44914
8.2711
8.2145
7.92922
7.80817
8.5082
8.90627
8.37202
9.43656
9.81365
8.78998
8.24012
9.13394
8.55747
7.49088
8.16319
9.0884
7.98927
8.27664
7.70421
8.3481
5.83183
5.97203
5.77442
5.85455
5.59667
5.79231
5.95307
5.69487
5.74361
5.90539
5.88786
5.91624
6.12852
6.13717
2.65774
3.01841
2.84701
2.99613
2.921
2.79137
3.44391
2.78203
2.86989
2.99242
3.79713
3.00588
2.8372
3.9427
3.26118
3.82116
4.32686
2.87629
3.18017
3.55587
5.56526
3.77162
4.7101
3.29101
4.8381
2.09492
2.13793
2.30596
2.05558
2.1902
2.2083
2.11439
2.16537
2.24275
2.13464
2.04043
1.99605
2.0643
2.00118
2.07521
4.06066
4.13288
3.58714
3.32763
10.0524
11.2072
3.29679
11.7797
3.72675
3.96446
3.72775
6.56647
5.76186
10.6487
12.2929
8.30472
9.66559
8.56946
5.71987
5.86395
5.83345
5.70379
5.96239
6.47117
6.16079
5.9891
5.85443
5.67579
5.67698
6.33536
5.79959
6.40034
5.93468
6.48083
5.70665
5.6722
6.47401
5.90238
6.29635
4.58852
4.50102
4.50352
4.48338
4.52203
4.51657
4.58849
4.60872
4.54162
4.55358
4.60969
4.69826
4.8091
4.72499
4.68402
3.62546
3.6928
3.6503
3.63413
3.68206
3.75484
3.71189
3.60768
3.95824
3.7737
6.74378
6.89208
7.15731
6.96458
6.54793
7.07691
7.53084
7.32357
7.31855
6.85492
6.74898
6.99713
6.15339
6.37775
6.851
5.86713
5.27924
6.00466
5.88806
5.73612
5.24348
5.20264
6.41146
6.22074
7.41947
7.00389
6.43062
4.83989
5.37476
6.54728
6.55045
5.82625
3.01311
3.11064
3.12033
3.11764
2.60925
2.90844
2.58468
2.56608
2.56685
3.23689
3.34923
3.1153
2.60902
2.80601
3.36133
44.3278
15.0161
20.9556
10.039
17.8927
35.7637
31.7618
26.3129
12.9743
11.564
11.783
23.6688
15.8555
15.0581
27.327
4.93643
4.795
4.92558
4.87512
4.71862
4.84003
5.36187
4.9486
5.71027
5.092
5.47237
5.02273
4.88786
5.11479
4.98412
4.81611
4.81869
4.88137
5.04044
4.68449
4.6374
4.97431
4.87021
4.96271
4.83169
4.81381
4.84474
4.68967
4.74596
17.2251
12.662
19.3303
33.1291
24.134
18.9182
16.8764
39.1431
19.1811
3.0858
2.86207
3.15994
3.12352
2.82828
2.8503
3.18412
4.03995
4.09815
4.8975
4.79658
3.61119
3.74161
4.57518
3.26297
4.16216
4.2095
3.30578
59.7774
66.9506
81.1591
38.2147
64.7922
75.083
105.35
101.138
45.0829
89.1216
60.3073
61.1963
85.1142
88.1012
122.341
124.519
212.202
76.5919
92.2335
122.495
204.111
62.2228
65.9203
62.0295
81.1258
63.6792
121.402
46.9798
46.1196
82.0666
62.5248
8.86216
5.74551
7.45355
17.0876
8.57354
26.0163
5.0088
8.52867
14.862
8.168
9.50783
9.27956
10.5371
9.53762
10.0908
8.89166
8.39177
9.69408
10.6179
9.74698
10.5868
10.4501
9.8521
10.2957
9.90892
14.9587
15.018
15.2522
13.9352
16.9689
17.1583
14.4029
13.2127
17.1552
14.7823
15.3957
11.6034
12.6519
10.7851
13.7032
9.11346
14.9629
13.1
8.56373
24.9359
23.4769
32.8721
28.7042
28.0429
26.8665
28.3091
34.7049
37.1005
35.9942
36.8188
41.8265
45.2207
8.35838
7.46959
12.8637
15.5095
7.94086
8.39138
14.714
11.4519
7.49389
7.28063
11.8859
8.51182
8.07821
8.25812
9.66702
14.1151
16.171
19.6239
15.4239
19.071
16.3782
10.4463
22.8557
13.1776
22.5288
23.2162
22.4178
28.248
24.9047
9.44709
8.58848
20.6697
26.5371
28.2315
20.7153
3.34857
3.31188
3.22668
3.27448
3.30202
3.33768
3.36761
3.31818
3.18607
3.187
3.31962
3.36672
3.28091
3.36817
3.34412
3.69828
3.55954
3.58126
3.24992
3.45062
3.60576
3.3059
7.35113
6.86926
7.19005
6.73592
7.1287
7.33476
7.81277
7.6847
7.34482
7.03218
7.12053
7.6705
7.11104
7.8124
7.5016
7.40813
7.1669
3.57198
3.76222
4.06117
4.05517
3.89513
3.70059
3.54393
3.58523
4.14437
4.3649
4.86758
4.77927
5.38187
3.25019
3.79327
4.01986
3.94706
4.27514
3.89553
14.9333
12.8679
8.20539
8.50337
7.68568
7.449
8.41991
10.0916
15.9604
16.2881
15.1299
15.5142