/*--------------------------------*- C++ -*----------------------------------*\
  =========                 |
  \\      /  F ield         | OpenFOAM: The Open Source CFD Toolbox
   \\    /   O peration     | Website:  https://openfoam.org
    \\  /    A nd           | Version:  10
     \\/     M anipulation  |
\*---------------------------------------------------------------------------*/
FoamFile
{
    format      ascii;
    class       volScalarField;
    location    "18";
    object      p;
}
// * * * * * * * * * * * * * * * * * * * * * * * * * * * * * * * * * * * * * //

dimensions      [0 2 -2 0 0 0 0];

internalField   nonuniform List<scalar> 
75457
(
-35.2839
-31.8992
-27.7909
-25.286
-20.5645
-22.0402
-30.9922
-30.7558
-19.7171
-14.2344
-18.175
-19.7382
-19.2428
-16.93
-4.01929
-4.47504
-4.18289
-4.35615
-4.81878
-4.33038
-3.84247
-4.49563
-4.51396
-4.76195
-4.55562
-4.90794
-4.65844
-1.3562
-1.37275
-0.833741
-0.448386
-0.742269
-0.790236
-0.908913
-0.293994
-1.35239
-1.26747
-1.49754
-1.60462
-0.559635
-0.827782
-0.565648
-1.05763
-9.90992
-9.75224
-8.84721
-9.00427
-9.44148
-5.39619
-6.00478
-6.33152
-5.72611
-5.94306
-6.08589
-6.40037
-6.38095
-6.20335
-6.40972
-5.69061
-6.03216
-5.85748
-5.63061
31.4701
31.7351
31.474
31.8032
32.0339
32.0603
31.716
31.7548
32.02
31.8096
31.5471
31.7993
31.788
31.4745
31.6777
-9.59184
-10.6881
-8.94848
-10.8817
-12.373
-6.54929
-6.83145
-8.94086
-9.51371
-9.33351
-9.36801
-6.81574
-8.09218
-6.73076
-6.69941
-7.77346
-6.69671
-6.91826
-7.07735
-7.10536
-7.45083
-7.04152
-6.88249
-8.05602
-7.28763
32.038
31.927
32.1885
32.2047
32.0713
31.9216
31.8405
32.2922
32.2938
31.9084
31.9194
22.6273
23.2893
25.7571
25.3299
22.6906
24.2716
24.3035
23.7734
24.1304
25.8224
25.6062
26.1509
26.6904
25.4415
24.8799
23.6815
26.1043
25.0995
14.1328
14.0949
13.5119
14.4018
13.9942
15.5299
15.2126
15.1016
15.0901
8.17881
7.71878
8.28965
7.8286
7.25874
7.77118
7.79702
6.84416
-7.00402
-7.04671
-6.43245
-6.63394
-7.0269
-6.67385
-6.37913
-5.88108
-4.34132
-4.38233
-5.93565
-5.65803
-5.18613
-5.89745
-4.76792
16.7376
18.3426
18.585
17.9222
18.3433
14.6185
16.0044
17.5687
16.5774
17.5399
14.86
13.5421
14.1347
-9.39645
-9.87183
-9.74061
-9.95243
-9.72036
-9.852
-9.17467
-9.8714
-9.71509
-9.96009
-9.94714
-9.78073
-9.70642
-9.82524
-8.68949
-7.31692
-9.81524
-7.20568
-7.53222
-9.11782
12.5127
13.2919
11.944
12.7128
10.9083
11.7142
14.0893
13.7993
12.8894
10.1117
10.0821
-7.65156
-7.49753
-7.90978
-7.86761
-7.8196
-7.74653
-7.58136
-7.46173
-7.06482
-7.89503
-7.64701
-7.42356
-7.78076
-7.38868
6.71728
5.78511
6.17594
4.48401
5.03651
5.77314
5.66126
6.91532
6.48785
5.5712
4.94879
4.30791
6.54774
4.96977
-7.08537
-7.16135
-6.87268
-6.83845
-7.13998
-7.076
-7.16618
-7.1201
-7.31512
-6.8359
-7.08246
-6.56891
-7.19745
-7.28047
-7.02243
-6.98409
-7.13764
-9.47491
-9.29133
-9.22816
-9.21556
-10.4569
-8.97541
-8.8583
-8.27477
-9.12817
-9.60672
-8.58993
-9.28906
-9.27342
-9.1339
-9.10198
-9.2857
-8.727
-9.1524
-9.44145
-9.17813
-8.77584
-9.33475
-9.05969
-8.81768
-8.99529
-4.14691
-3.91706
-4.19941
-3.67759
-3.69771
-3.55776
-3.36466
-3.32821
-3.30138
-3.76651
-4.07414
-3.94393
-3.22453
-3.64011
-3.57859
-0.582107
-0.46274
-0.272592
-0.51495
-0.263003
-0.421021
-0.704998
-0.996207
-0.127322
-0.0291716
0.0869564
-0.0268072
-0.0578976
0.144898
0.399579
0.250669
0.113707
0.168399
0.157292
0.130284
-0.00905806
-0.0223203
-5.21157
-5.58865
-4.91518
-5.05082
-5.22357
-5.19241
-5.62712
-5.645
-5.92256
-6.13
-5.69325
-7.03754
-7.15957
-7.30315
-7.29047
-7.23622
-6.99081
-7.01062
-7.38816
-7.65056
-7.37457
-7.62667
-6.73086
-7.01561
-7.20109
-7.31485
-7.14338
-7.25925
-13.4793
-12.5778
-12.2908
-13.8065
-16.1083
-15.2605
-15.3698
-15.0617
-14.6258
-14.2192
-15.5123
-4.23879
-4.38445
-4.96906
-4.77783
-4.5583
-4.92203
-4.6835
-5.34542
-4.926
-4.9267
-4.35594
-0.233555
-0.0818359
-0.35803
-0.416819
-0.101116
-0.111242
-0.424403
-0.161668
-0.5509
-0.560986
-0.657688
-0.243432
-0.457246
-0.943939
-0.971358
-6.03379
-5.19326
-6.636
-6.1019
-5.91272
-7.37872
-7.72097
-7.3682
-7.64859
-7.736
-7.38678
-8.11576
50.2392
55.0261
43.6719
46.2989
49.0991
51.1611
50.8093
53.6462
46.2849
50.6836
48.913
49.9269
46.0575
50.5072
44.7618
46.2661
48.1715
43.2172
35.0518
34.5978
35.3733
36.109
37.0054
37.9809
35.2655
35.8885
38.3751
41.84
38.5792
38.774
40.4655
26.4177
23.6477
21.0813
22.7101
27.3014
24.0081
22.5581
23.9635
23.6287
21.7339
28.9851
28.9626
22.0853
23.6222
21.1047
27.2859
29.3974
29.4574
25.467
25.4378
26.1117
27.4096
-8.7896
-9.14287
-9.36149
-9.34591
-9.44177
-8.86743
-8.93325
-9.05561
-9.21702
-8.87844
-9.29237
-8.88013
-9.02006
-8.97644
-9.10654
-9.06797
-24.2305
-26.8034
-14.2933
-22.4269
-12.5163
-19.3374
-16.9392
-14.0301
-12.6925
-17.448
-31.0883
-26.3087
-17.4202
-23.9712
-12.6141
-15.0528
2.34479
2.18592
2.34904
3.19752
3.57414
4.18492
1.99365
1.66199
3.32897
3.30246
4.19189
3.83999
3.56358
3.4864
3.32442
2.66494
1.926
2.7425
34.1794
38.1984
36.7562
33.3757
34.6989
37.4503
40.9867
40.078
34.9435
40.9324
42.6194
40.8881
37.0064
33.7787
34.5744
35.6213
27.2798
26.6303
27.132
26.9049
26.0599
27.8426
28.4177
27.8003
27.1691
28.1077
27.5494
26.7318
27.5848
26.0093
26.6923
28.2203
28.6978
12.7034
12.5565
12.2693
12.6385
12.6276
12.6784
12.7679
12.8472
12.884
12.7341
12.3657
12.4344
12.9491
12.6023
12.7023
12
11.9993
-5.19648
-6.05905
-7.64377
-6.74872
-5.683
-5.88336
-5.40197
-5.49942
-6.07604
-5.59552
-7.32058
-7.4717
-6.46288
-4.58125
-6.94015
-6.05725
-6.13077
-6.81119
-4.20615
-4.25223
-4.10067
-4.04806
-3.54147
-3.77874
-4.00734
-4.0034
-3.51057
-3.68006
-3.80857
-3.49389
-3.36404
-3.78673
-6.28949
-5.88659
-6.76817
-7.57954
-7.60381
-6.99789
-6.70606
-6.61739
-6.49814
-7.45445
-7.47657
-7.31431
-6.83749
-6.32503
-6.61282
-7.3406
-7.52801
-7.65921
21.7967
17.5628
18.3664
25.1076
21.4386
15.5813
18.495
18.6401
15.1405
23.4796
18.6441
15.7817
-8.39991
-8.15547
-7.90723
-7.80894
-8.16109
-7.92535
-6.62311
-6.97685
-7.99578
-7.99539
-7.8868
-7.05189
-6.99572
-7.68311
-7.77641
-7.60409
-5.31101
-5.89138
-4.86868
-5.36682
-6.5613
-6.39755
-6.48926
-5.36099
-5.11875
-5.08908
-5.07499
-5.9116
-6.48547
-5.38648
-4.94114
-5.81371
4.96363
4.19826
3.53698
6.76511
7.6479
5.22237
5.93307
2.70211
4.26504
4.97089
6.54793
5.46653
6.52446
7.34532
7.07678
3.99639
4.10872
5.39794
3.49376
-2.74262
-1.78839
-2.71804
-4.12826
-3.21925
-2.26523
-3.88846
-3.45861
-2.76062
-3.07414
-2.67015
-3.9702
-2.8531
-2.44508
-1.86791
-1.50508
-1.50504
-2.27764
-1.79471
-2.00892
-1.72624
-1.70736
-2.26492
-1.52605
-1.98632
-1.83005
-2.44712
-1.41634
-1.48015
-1.50791
-1.3414
-1.875
-3.51769
-4.14846
-3.19882
-1.80833
-2.27988
-5.96966
-3.452
-3.10953
-3.12674
-4.21277
-5.65153
-7.94546
-8.26458
-8.27245
-7.96486
-9.05983
-9.36364
-9.17067
-10.0989
-7.45185
-7.15167
-9.5313
-10.4909
-10.2625
-9.22233
-9.00262
-10.3035
-9.29491
-8.9661
-9.55868
-9.51856
-8.57408
-9.34992
-9.43112
-9.13539
-9.33206
-9.06761
-9.28555
-9.31201
-9.10948
-8.92436
-9.05861
-9.29023
-9.06362
-9.14876
-9.04509
-9.17898
-9.1193
-9.09566
-6.9649
-7.53025
-8.76229
-8.56774
-7.65097
-8.19527
-8.62253
-8.38111
-7.74759
-8.46215
-7.70381
-4.83022
-5.55266
-3.81789
-3.7054
-4.01762
-3.58764
-3.74631
-2.91286
-3.92587
-4.15913
-3.78251
-3.87399
-3.54521
-2.94528
-2.75604
-2.71426
-3.03004
-2.9574
-2.39542
-2.89795
-2.68405
-3.03846
-3.00883
-2.61172
-2.62956
-2.74222
-2.42043
-2.70417
-2.53897
-2.35876
-2.5997
-2.28709
-2.52724
-2.66117
-2.3762
-5.78629
-6.02743
-5.89745
-5.85013
-5.46728
-4.92177
-5.84919
-4.69377
-5.47014
-4.26111
-5.03893
-5.43366
-5.60736
-5.20876
-4.98212
-6.38564
-5.35614
-4.81964
-4.59639
-4.55654
-6.8783
-7.06078
-7.26256
-7.20189
-6.43122
-6.62854
-7.57288
-7.35964
-7.03378
-6.3061
-6.50349
-6.44141
-6.25863
-6.7722
-6.67396
-7.08278
-6.05113
-6.3464
-6.80213
-7.05902
-6.1682
-6.4129
-6.73647
-7.70833
-6.57515
-7.26988
-7.02786
-8.35578
-6.56113
-6.34531
-6.48881
-7.15876
-7.60285
-7.03825
-7.65344
-6.71894
-6.60311
-6.98345
-6.71004
-6.19263
-5.75496
-7.06058
-6.3131
-7.1616
-8.09848
-7.52314
-7.28341
-6.75631
-6.80086
-7.7205
-7.74818
-8.38499
-7.31384
22.7242
23.2541
24.2089
23.2005
24.0089
22.74
23.7797
22.6158
23.1918
24.1921
-8.96708
-8.80076
-8.53566
-8.588
-9.12022
-9.08378
-8.61826
-8.74893
-9.09747
-8.48834
-8.87288
-8.66677
-8.63201
-9.09375
-8.67765
-8.94646
-9.07358
-9.46851
-8.92417
-9.83334
-9.57561
-9.31038
-9.99644
-8.81375
-9.6059
-8.7842
-8.57979
-9.57014
-9.8243
-8.63471
-9.62936
-9.71275
-9.27602
-8.93569
-9.94719
-9.23643
-9.25252
12.1381
12.5413
13.2352
12.6552
12.3297
13.4556
10.0289
11.6041
11.8315
11.4882
10.7825
12.8906
12.3622
12.8952
12.0076
11.5766
-13.0386
-14.1885
-13.1874
-12.6532
-12.8109
-10.7611
-11.4488
-12.2996
-12.864
-13.4083
-9.68496
-11.0543
-12.2664
-11.0077
-12.0666
-10.0481
-9.72602
-9.76214
-10.8377
-10.9312
-11.6125
-9.8585
-9.38119
-9.12413
-10.2816
12.8105
11.7983
11.436
11.5139
11.5569
10.0737
9.74519
9.16172
9.21627
9.77677
9.90479
8.98702
10.7463
9.8501
11.5575
11.6608
9.70842
10.827
10.4325
-8.50799
-8.50453
-9.12191
-8.47908
-9.98011
-8.71309
-8.23646
-8.8524
-8.9452
-8.54978
-8.43735
-9.18369
-9.32289
-9.83158
-9.291
-8.71105
-8.50064
-9.47372
-9.21085
-7.1141
-8.25424
-7.52405
-7.5097
-7.28045
-7.64337
-7.36611
-6.97587
-8.04524
-7.5537
-7.56645
-7.24522
-7.64787
-7.62187
-7.77207
-7.82079
22.0445
22.6142
21.939
21.7337
23
23.8821
23.6314
22.7222
22.7526
23.5846
23.757
22.8343
23.681
24.231
24.8984
24.3425
-11.0845
-12.8466
-9.32296
-9.06133
-14.2452
-17.092
-6.29071
-7.29899
-9.96853
-12.5442
-9.43312
-10.0537
-11.5154
-16.8772
-15.1641
-7.81029
-12.7988
-9.76639
-13.2896
-15.6423
58.5919
52.6379
48.3007
47.9648
57.0674
58.366
51.8733
56.6808
50.8622
52.8585
50.4389
50.8816
47.7009
47.5662
53.2848
21.0007
19.6975
24.3164
26.0185
23.8612
20.7901
26.1402
22.6974
25.1455
28.4092
27.3565
28.5829
30.3043
28.1316
-14.1595
-14.8944
-14.4436
-15.1924
-13.2992
-13.559
-11.9258
-10.7909
-13.1265
-13.0744
-11.2482
-10.7811
-13.5886
-11.865
-11.5245
-12.1668
-5.26597
-4.99328
-5.03259
-5.19444
-5.00194
-5.29231
-4.92878
-5.26284
-5.43467
-4.80636
-4.86517
-4.81948
-5.37168
-5.19083
-4.87457
-5.06429
-5.01212
-5.33201
-5.14587
-9.65238
-9.63773
-9.28431
-10.0569
-10.1862
-10.0139
-9.29281
-10.1174
-9.98999
-8.51954
-9.17615
-9.05127
-9.42679
-9.13403
-10.3341
-10.0106
-8.85189
-9.26823
-9.01299
-9.11509
-8.76412
-8.83802
-9.30633
-8.77508
-8.87729
30.9364
30.1101
30.1734
30.6168
30.789
30.4
30.1834
30.2169
30.9262
30.7238
30.7825
30.5328
30.6121
30.391
30.708
30.771
30.7959
30.5901
30.2402
30.864
-6.39951
-7.21556
-6.33772
-6.85816
-6.33916
-6.02283
-6.17735
-6.95413
-5.95379
-6.26384
-6.47716
-6.66455
-4.35809
-4.44873
-4.06932
-3.935
-3.75444
-4.42068
-4.41971
-4.54893
-4.33168
-3.91496
-3.90609
-4.21443
-4.23606
-3.89926
-4.02991
-3.96869
-4.14565
-4.00186
-3.21808
-3.02533
-3.24583
-3.02887
-3.18098
-3.50234
-3.57435
-3.70114
-3.80058
-3.0741
-3.52961
-3.16755
-3.81745
-3.6124
-3.39271
-3.23713
-3.83228
-3.47904
-3.16893
-2.59222
-2.65019
-2.89104
-2.09177
-2.56368
-2.32873
-2.24267
-3.11357
-2.62473
-3.28362
-3.34875
-2.43185
-2.39873
-2.48108
-3.2537
-3.31134
-6.43783
-6.49407
-6.9837
-6.92658
-6.99966
-6.47822
-6.53991
-7.22631
-6.95561
-9.0546
-8.82131
-8.88639
-9.04646
-9.19215
-9.20333
-9.02629
-9.29783
-8.97213
-8.85919
-9.18051
-8.97668
-4.22917
-4.07719
-4.25925
-4.2575
-4.15837
-4.3718
-4.32088
-4.51804
-4.45822
-4.26698
-4.74299
-4.70672
-4.65536
-4.75253
-4.55404
-4.72449
31.3645
31.5753
31.2987
31.0401
30.6916
30.7674
30.2895
30.2313
30.5028
31.0376
-6.96869
-6.6963
-6.94029
-6.70503
-7.07012
-6.94299
-7.19815
-7.16972
-7.39902
-7.37563
-7.14542
-6.931
-7.16288
-7.56305
-7.49068
-7.28209
-7.19229
-7.10499
-5.09739
-5.3757
-5.00853
-5.0836
-5.02676
-5.01165
-5.23182
-5.03976
-5.18472
-5.58924
-5.34997
-5.40489
-5.17019
-5.35311
-4.95478
-5.04221
-5.23176
-5.03637
9.24909
8.62726
8.04349
9.02526
7.21934
6.6482
9.6617
9.12968
7.80685
9.34799
8.36832
7.44573
8.22172
8.25708
31.2039
31.1018
30.9822
30.8086
31.2566
30.8509
30.6707
30.7047
31.011
30.8281
30.999
31.1235
30.6982
30.6642
30.5531
30.5952
30.9735
30.7689
30.9146
30.6831
43.7024
42.3444
35.5
38.6017
28.1433
32.4883
17.9694
33.7242
33.6815
31.0551
36.7905
26.9238
38.5881
43.7487
39.5319
47.0434
28.6541
39.8998
35.4034
-8.54446
-9.08302
-5.47584
-4.12226
-9.83948
-12.196
-11.7048
-14.0931
-5.12315
-5.32653
-16.0584
-12.5271
-7.1355
-11.4098
-13.0027
-8.10263
-8.3579
-13.2559
-10.3587
-10.3248
-1.23108
-1.83591
-1.7786
-1.8308
-2.22876
-1.40328
-2.70915
-2.03072
-2.00681
-1.9982
-1.96301
-1.83268
-2.66567
-1.72137
-2.74438
-2.63562
-2.4333
-2.42842
-1.6861
-14.2298
-14.2075
-14.9589
-14.4556
-14.8825
-15.7735
-13.0022
-13.7976
-14.6597
-12.0658
-13.0338
-13.5199
-13.8497
-14.1334
-13.9874
-14.515
32.8686
32.8193
32.6861
32.7625
33.0353
33.0525
32.9295
32.9582
32.7683
32.6326
33.1522
32.9282
33.0926
33.0875
32.7119
32.6342
32.802
32.9727
33.1038
32.6991
0.266524
0.114558
0.683068
1.10359
-1.85957
-1.94865
-2.38417
-3.25085
-1.13137
0.277194
0.656695
-1.86503
-2.21318
-2.74753
-3.48286
-3.36509
-1.02096
-2.85866
-2.60698
-1.53859
33.0562
32.9498
33.0331
33.0761
33.0654
33.0803
33.0027
33.1356
33.1984
33.2038
33.2701
32.9818
33.151
33.1154
33.2278
33.2099
33.0973
-5.27408
-5.29968
-5.36203
-5.65752
-5.59111
-5.35438
-5.11223
-5.40004
-5.52378
-5.85334
-5.14927
-4.71801
31.1664
30.9815
31.5284
31.5301
31.2885
31.2322
30.8977
31.1114
31.3292
31.4945
31.5338
31.1641
31.0065
31.1235
30.9203
31.1229
30.9209
31.1835
31.2499
30.9102
31.152
24.7817
24.3452
24.4419
24.857
24.8921
24.058
24.4422
26.0815
26.25
26.036
25.3494
24.9886
24.6266
24.5655
24.5897
25.2798
25.1657
25.1738
9.85594
10.1129
10.1986
9.7835
10.0432
10.7486
10.3922
10.435
10.1772
11.3367
11.1697
11.4152
11.2472
10.3156
10.045
51.1149
46.0439
40.2181
41.6399
47.9766
46.0651
57.5199
42.8953
49.7543
44.652
57.0876
56.8889
52.6092
45.8753
-0.808331
-0.48089
-1.00877
-1.53835
-1.47668
-1.69475
-0.854731
-1.02788
-1.14372
-0.887998
-1.62236
-1.28202
-0.958315
-0.44485
-0.616624
-1.09004
26.7198
24.6663
26.3029
24.5052
24.1712
24.5594
24.8833
24.9372
25.7903
26.1942
28.647
28.1375
27.159
29.4683
30.0546
27.4745
28.5073
32.3466
32.3087
31.9085
32.0064
32.1109
32.1607
32.3812
32.4172
31.8761
31.992
32.3279
32.3571
32.3121
32.1927
32.1481
32.3144
32.1217
-10.9164
-8.6484
-8.70026
-11.7697
-7.78553
-12.9895
-18.2984
-7.9309
-10.549
-11.4314
-10.4991
-10.0536
-11.0164
-8.31323
-15.6566
-15.6121
-12.7764
-13.7874
19.5316
19.1912
20.7917
20.4651
19.7672
18.4666
18.8705
20.4132
20.8912
20.4971
20.2526
20.5554
18.8872
18.6385
18.0023
19.7897
18.675
19.2928
18.2583
19.7595
19.0633
18.8305
-4.58921
-4.95171
-4.6843
-4.38767
-4.09402
-4.20242
-3.00294
-3.43223
-4.15405
-4.91545
-4.27426
-4.48921
-3.55497
-3.59619
-3.49888
-3.42542
-4.28862
-4.82731
-4.24435
-4.27395
-4.71099
-4.57621
-4.40617
-4.67328
-4.91405
-4.70108
-4.84456
-4.0896
-4.13671
-4.05473
-4.20541
-4.1939
-4.8398
-4.77014
-4.76893
-4.48661
-4.11097
-4.58206
-4.85724
-4.70452
-4.76206
-4.92259
-5.1455
-5.18102
-4.69517
-5.04632
-4.70808
-4.84873
-4.60385
-5.05184
-4.28857
-4.60453
-4.40507
-5.11266
-4.75734
-4.40924
-5.11238
-6.43067
-6.77978
-6.5802
-8.09749
-5.40679
-3.96818
-7.34546
-7.25268
-1.9863
-2.7731
-0.423358
-4.17448
-1.60323
-4.36141
-3.76206
-5.80006
-5.33881
-3.5686
-3.07616
0.36449
-1.85053
-0.322555
7.93064
6.32044
5.65709
6.14042
6.74057
8.32477
8.20534
7.16586
6.44581
5.61037
6.00709
6.15096
5.79463
6.82959
6.68944
7.76961
6.55711
5.8203
6.4725
-7.35165
-6.91842
-7.13579
-7.17042
-7.28966
-7.3461
-7.51823
-7.81948
-7.34783
-7.9032
-7.41222
-7.26069
-7.29303
-7.22608
-7.27996
-7.25702
-7.29673
-3.30184
-3.5002
-4.92179
-4.42698
-4.22474
-4.49066
-4.70598
-4.38482
-3.77578
-4.58683
-3.97639
-4.59943
-4.26643
-4.32788
-4.80029
-5.49819
-5.6539
-5.97757
-4.53507
-5.25763
-4.42066
-5.45558
-5.12224
-5.33133
-5.39382
-3.94656
-5.21091
-5.09681
-4.78548
-4.55382
-5.65694
-0.219215
-0.495547
-0.221987
-0.0422955
-0.153726
-0.260323
-0.340731
-0.37451
-0.0339289
-0.220707
-0.473415
-0.438639
-0.652732
-0.625204
-0.170032
-0.331666
-0.720012
-0.626026
-0.641908
-0.603147
-0.28449
-0.0845968
-0.758004
-0.119585
-0.328338
-0.287239
-0.590381
-0.712356
-0.345443
-0.452139
-0.302731
-0.0644175
-0.0887301
-0.384008
-0.747643
-0.367139
-0.343294
-0.723287
-0.146177
-0.355929
-11.5139
-12.5632
-15.2533
-16.0391
-15.8262
-16.5735
-12.5827
-13.5455
-14.1408
-10.1535
-12.2988
-12.8661
-15.056
-14.2801
-14.4065
-12.8936
-12.6673
0.913521
0.92258
0.523886
1.81992
1.16862
0.291303
0.0217588
1.88997
1.59677
0.632699
-8.96933
-8.87646
-9.25682
-9.50669
-8.67424
-8.62944
-9.1123
-9.47705
-9.4952
-9.17435
-8.93616
-8.76154
-8.64676
-8.70894
-8.55237
-9.01764
-8.76619
-8.94104
-7.13052
-7.13298
-7.25101
-6.95734
-7.34126
-6.96685
-7.13861
-6.89593
-6.59866
-6.65181
-7.36567
-7.45072
-7.13292
-0.755508
-0.434751
-0.903385
-0.546607
-1.09527
-1.34383
-0.980975
-0.341058
-0.30794
-0.797435
-1.1498
-0.968505
-0.280176
-0.223015
-8.20423
-8.1572
-8.55515
-8.35481
-8.22997
-8.25077
-8.54196
-8.40462
-8.3929
-8.50455
-8.49851
-8.73609
-8.5658
-8.3036
-9.01508
-19.4773
-18.803
-18.5243
-18.2582
-17.6579
-17.1747
-20.177
-19.2646
-19.1074
-19.608
-20.168
-19.8506
-18.1348
-17.9919
-18.3636
-18.5853
-18.8053
-19.389
31.9156
31.9116
32.1687
31.5129
31.6278
31.5891
31.6977
31.5176
31.8397
31.8168
-7.47815
-7.53599
-7.52398
-7.76122
-7.43004
-7.74132
-7.40182
-7.48835
-7.29326
-7.37764
-7.4096
-7.69423
-7.76477
-7.52853
-7.78359
-7.4022
-7.52041
-7.56823
-7.3713
-7.54221
-7.60958
-7.55281
-4.62871
-4.46648
-4.7307
-4.62604
-4.18896
-4.07193
-4.33131
-4.39513
-4.31683
-4.11659
-4.02016
-4.03556
-4.25133
-4.33713
-4.17978
-4.18834
-4.1381
-4.1708
33.5842
34.5516
35.8215
34.5167
33.0844
35.5686
33.7511
34.6964
31.0066
32.8653
34.4389
31.6211
31.9526
30.7096
29.4302
32.536
30.3398
29.208
30.2828
33.8084
31.6417
30.6875
28.0904
33.4149
34.1197
35.5642
35.0004
39.444
38.6751
35.8798
38.4781
31.6709
30.9264
39.282
40.304
36.8927
39.6115
32.9358
33.05
33.1082
32.9205
33.0244
32.9192
33.0934
33.0475
32.8969
33.0223
32.8441
32.8818
33.0984
33.0387
33.0406
33.0954
32.5075
28.3562
27.9362
30.2996
31.4034
33.2421
31.1672
31.2511
27.5731
26.8986
31.6206
29.4346
31.0162
28.2563
30.3645
28.0912
27.8329
29.157
29.7385
28.5801
29.2635
30.4022
30.2468
29.5093
28.7781
30.4172
30.8287
30.3309
25.0184
24.5606
26.8087
28.1716
16.2879
15.2739
25.3803
25.2153
16.0172
18.2354
20.7955
20.7008
22.4217
19.906
17.446
15.3464
30.7806
29.9378
30.2977
30.8117
30.0131
31.3363
30.9331
30.135
30.1541
33.0019
32.5699
32.2519
31.7002
30.5781
31.7119
31.1481
32.2101
31.5958
30.9389
32.4907
10.5968
12.4299
7.12738
4.19455
5.37127
8.21331
15.5845
7.23401
11.1046
11.0639
4.78948
9.80185
10.5383
7.43262
10.4049
17.0186
17.0954
15.5526
13.5862
11.9208
20.8804
18.0046
18.0879
15.2729
19.2306
19.2948
19.337
16.6942
15.2497
16.3144
16.4332
17.211
17.5257
32.2557
32.2998
32.1154
32.0101
32.6683
32.6392
32.2195
32.0615
32.8174
32.8277
32.2738
32.5564
32.8097
32.7771
32.675
-9.56586
-9.32132
-9.78162
-9.71875
-10.2009
-9.1506
-9.04792
-10.8856
-10.5081
34.5324
33.6587
32.6479
32.5903
33.3337
32.706
34.9426
32.4017
36.165
34.7198
32.5083
34.3664
35.0071
35.3723
35.8353
31.617
31.9243
33.7057
35.877
34.5468
32.1115
32.9891
6.86256
7.56342
6.88596
4.98828
6.00401
6.90007
3.77616
5.01681
5.32733
3.21302
4.41437
2.44862
3.25576
2.14842
1.71195
2.53039
3.75391
5.31958
1.39728
4.21259
31.0633
29.3684
34.1157
29.5601
31.4602
37.8682
35.1212
31.3093
35.0455
30.6635
33.126
39.0062
36.8333
37.5524
40.9668
34.2871
33.5347
31.8082
36.2922
30.2731
33.4662
31.165
35.0926
39.5005
40.3975
38.5221
-7.46444
-8.38365
-7.89294
-7.48232
-7.6555
-8.267
-7.90016
-7.52286
-8.8096
-7.42677
-7.66859
-8.2721
-7.56592
-7.30728
-7.19909
-7.49228
-7.51731
-8.24619
-7.71118
-7.10315
-7.1343
-7.12448
-7.06574
-7.57112
-7.19658
-7.52338
-4.67587
-4.43968
-5.11048
-5.56765
-4.58598
-4.81866
-4.50785
-3.37579
-5.24815
-2.6989
-5.20026
-4.10994
-3.6102
-4.3198
-5.20886
-5.15572
-4.54194
-4.40276
12.927
12.4257
8.97615
11.0066
9.62521
7.65681
4.39715
9.12096
9.38442
6.96362
2.04682
5.82472
7.22378
28.3705
29.1574
29.5002
28.1293
29.7916
29.5695
29.955
29.0876
29.221
28.2041
28.395
30.2833
29.6458
-10.9871
-10.8236
-11.8225
-11.1668
-11.1862
-11.8595
-13.1307
-12.5824
-14.1206
-11.9462
-12.1169
-11.743
-13.1811
-10.1129
-8.76758
-8.57024
-9.04606
-9.36105
-9.76325
-9.74259
-9.973
-8.7433
-8.80596
-9.33114
-8.73253
-8.33478
-8.93334
-8.83461
-7.92929
-7.56769
-7.80264
-7.90465
-7.91114
-7.71873
-7.58159
-7.60353
-7.36288
-7.69042
-7.70967
-7.92185
-7.89376
-7.81598
-7.46089
-7.62578
-7.9974
-7.65218
-7.69725
-7.56387
-7.60482
-7.49737
-7.51337
-7.87637
-7.60343
-7.50957
-7.67949
-7.66191
-7.64194
-8.19013
-5.38626
-6.63678
-6.66049
-5.33632
-6.05722
-6.33272
-7.06417
-5.1998
-5.13802
-5.67189
-5.80577
25.8721
27.479
26.5622
27.6795
26.928
27.8417
26.945
26.1853
27.2899
26.4016
27.8112
25.575
27.1208
35.8976
38.75
41.06
49.377
47.1691
35.6751
52.7572
51.9551
39.0762
44.7547
37.2717
39.4839
47.6633
51.5743
54.3827
42.7751
44.6245
41.2767
51.0116
48.9777
47.1905
44.1889
36.6517
36.659
36.6218
35.3312
35.047
33.7773
34.1833
34.7069
33.9637
32.9784
33.0663
22.8221
22.1539
21.8435
21.4366
23.9511
23.4383
21.6997
23.1405
22.301
21.3706
20.586
20.8729
22.6232
24.0303
24.2177
21.3846
20.8321
23.1757
20.2677
34.4171
34.7074
34.5854
34.5789
35.3237
35.1565
34.9388
34.7617
34.7593
35.1627
35.9238
35.6217
36.0581
-6.22602
-2.09407
0.335042
-3.53786
-1.52502
2.2544
2.07322
2.71322
3.52186
-0.978405
1.35338
-6.29924
-9.57055
-1.0319
2.28034
-4.16188
-1.8234
-9.96224
-5.07798
-10.7156
-3.74726
-7.41062
-7.25545
-7.30821
-7.42832
-7.06352
-7.2122
-7.25595
-7.63508
-7.19802
-7.02496
-7.55036
-7.31597
-7.20562
-7.18944
-7.21724
-7.21706
-6.8767
-7.14907
-8.88763
-10.2019
-8.1486
-8.20141
-7.77853
-9.48706
-8.44721
-8.4657
-8.06084
-8.45737
-9.55102
-11.5736
-9.1958
-9.00398
-8.03107
-6.25866
-7.6895
-7.31629
-6.69442
-7.96373
-9.46566
-7.38122
-5.81585
-6.68169
-6.15559
-7.94221
-6.60068
-3.2346
-3.67185
-3.91193
-3.78976
-4.18331
-11.5279
-13.6454
-12.28
-13.6291
-18.1676
-11.4869
-15.3062
-18.662
-17.9868
-22.4841
-23.947
-20.4715
-19.926
-20.7045
-15.833
-2.57661
-2.79954
-2.73592
-3.6489
-3.40117
-3.08871
-3.3138
-3.09826
-3.23103
-2.32001
-1.84308
-3.40047
-3.13028
-2.43883
-1.28134
-2.43538
-3.22379
-2.64835
18.8255
16.8434
12.8302
19.8497
6.98203
-3.4076
19.1147
9.41518
18.1145
12.1185
13.5094
-16.301
-8.46052
-26.961
7.44305
6.93236
3.91047
-5.79961
1.12077
6.15475
-17.4339
-17.0146
-17.0806
-15.5478
-15.9418
-14.7945
-14.6645
-14.4782
-15.8921
-16.1121
-14.0831
-14.7585
-15.2728
-14.3516
-10.0822
-8.38111
-9.11371
-10.8548
-6.52464
-7.23887
-8.67757
-10.9867
-8.49182
-8.08497
-10.8739
-9.6609
-5.77391
-6.46517
-5.72397
-6.31257
-6.37766
-6.65171
-4.59822
-5.63804
-4.78999
-7.38548
-10.7993
-6.0275
-11.8718
-10.0181
-11.8818
-11.1897
-1.6645
-2.19999
-1.99823
-4.03817
-6.25676
-6.79295
-8.6346
-8.73785
-3.32672
-6.3941
-3.82017
-3.96645
-0.217986
-1.87276
-2.15553
-1.87199
1.59673
1.33475
0.351875
3.36868
3.40299
-0.105773
-2.37577
0.469818
1.58028
3.15881
3.71703
-0.801618
1.61632
1.316
-0.177143
1.00581
14.1772
14.8013
11.8815
12.3023
14.8593
13.0172
12.5401
13.141
13.6427
13.1362
12.0876
12.6985
12.8212
11.8839
14.711
-9.32037
-6.40304
-7.12555
-8.58835
-9.6658
-8.8885
-6.29067
-9.01647
-4.66242
-4.29696
-5.00453
-4.95213
-5.02655
-5.36702
-5.32912
-4.6139
-5.31834
-5.44117
-4.86202
-5.61837
-6.76015
-6.34504
-5.12743
-5.21384
-6.42602
-6.26783
-6.42748
-5.51058
-6.1674
-5.04513
-5.55015
-4.64365
-5.97357
-5.56608
-6.11769
-5.36101
-5.08677
-5.71235
-7.87184
-7.6118
-8.14512
-7.89309
-7.69295
-8.1232
-8.74337
-10.0343
-9.38355
-8.73673
-8.36407
-9.05607
-8.99837
-9.82593
-9.34655
-8.52099
-8.96191
-9.27795
-1.5507
-1.35077
-1.34515
-1.53335
-1.67398
-1.72996
-1.33293
-1.36456
-1.67781
-1.73805
-1.54892
-1.85546
-2.22277
-2.26064
-1.43129
-1.90284
-1.72459
-1.54003
-2.25127
-2.11919
-1.73389
-1.5227
35.1774
34.8227
35.2998
34.9299
34.3603
35.0276
35.5427
34.4312
34.5595
34.4555
33.8808
33.5806
33.8017
34.7979
34.3029
34.0578
-14.0856
-13.6117
-13.1415
-13.9398
-14.9127
-13.766
-11.8142
-12.2491
-11.4813
-13.9841
-12.4436
-12.0765
-13.2189
-11.7364
-14.7476
-13.3123
-14.0978
-15.5028
-4.66369
-4.70387
-4.21045
-4.03203
-4.49902
-4.47793
-4.68295
-4.13659
-4.12702
-3.841
-4.82576
-4.87421
-4.41468
-4.87386
-4.31716
-4.79452
10.9721
11.696
13.3796
11.8055
10.4866
12.6804
11.1128
13.1231
13.6294
11.8262
12.35
12.0134
11.7734
13.3649
11.2631
9.90378
11.2492
9.70291
10.1172
11.1294
7.1097
5.35744
2.73772
2.48925
1.10503
1.00031
4.93036
-0.105484
10.6957
9.43273
-1.71837
4.22249
9.06728
7.62051
1.29487
4.90697
-9.57093
-9.46881
-9.13005
-8.84468
-8.7511
-8.95216
-8.86701
-8.87133
-8.66345
-7.82857
-7.80138
-8.07719
-3.70907
-3.59952
-3.79008
-3.32676
-3.49818
-3.76524
-3.86357
-3.89277
-3.23499
-3.35338
-3.55645
-3.43695
-3.93082
-3.4732
-3.22603
-3.38019
-3.68618
-7.80407
-7.99584
-7.63443
-7.6522
-7.69723
-8.08287
-7.98924
-7.59071
-7.9355
-7.66137
-7.64792
-7.82657
-8.1451
-8.38381
-7.69335
-8.01569
-8.42519
-7.59633
-3.29889
-4.84448
-4.16015
-3.47313
-5.02344
-4.74071
-3.07575
-3.79364
-5.18071
-2.41688
-2.21799
-3.10213
-2.55011
-3.36142
-2.50197
-2.64724
-3.13641
-3.3147
-4.4281
-3.83111
-5.75951
-5.64514
-2.85999
-3.023
-4.70516
-4.41644
-3.32875
-3.77752
-5.2825
-5.16209
-3.87711
-3.62559
16.0939
15.7567
10.2565
13.1209
15.0079
15.8249
15.6716
14.3541
11.4487
14.3459
11.1922
13.7362
13.6041
12.1416
35.521
35.1497
34.0362
34.2417
34.262
34.6087
35.2711
34.9758
33.9476
34.1641
34.0365
34.7327
34.5497
35.0988
-1.59351
-1.47504
-2.00344
-1.92568
-1.8531
-2.04557
-1.71944
-1.88764
-1.733
-2.01343
-2.16251
-2.0162
-1.59873
-1.76787
-2.11034
6.39966
6.81441
9.49455
9.54654
6.26029
7.49547
7.54728
8.0226
9.27174
9.527
5.46231
5.74953
6.28017
6.88573
8.1074
6.68843
7.53308
-7.17108
-6.54613
-6.58621
-6.55117
-8.58087
-7.68723
-6.49416
-7.29906
-7.65779
-8.5656
-6.86383
-7.38368
-7.39584
-7.60176
-6.40867
-6.03088
-7.01941
-8.51481
-7.67008
-6.72244
-7.74571
-6.17706
-8.34936
-7.40341
-7.51807
-8.05721
-9.4031
-10.1987
-8.2819
-7.94333
-7.95347
-9.22318
-8.65628
-8.78466
-8.85484
-9.26435
-8.50038
-6.42948
-6.48202
-6.40544
-6.49928
-6.2353
-6.27529
-6.13861
-6.2571
-6.11147
-5.83794
-6.0122
-6.04728
-5.98907
-6.30879
-5.9075
-5.97376
-8.2501
-8.2871
-8.39536
-8.44148
-7.79482
-8.45034
-7.63956
-8.41294
-8.29775
-8.11596
-7.84032
-7.71819
-6.99651
-7.37408
-7.14282
-7.81747
-7.94396
-7.88773
14.5859
14.65
13.646
13.2969
10.5284
8.71722
15.626
14.8363
7.88974
15.8038
13.3091
11.9472
9.33171
12.0277
14.2349
14.861
13.5415
9.67885
10.9332
10.5003
8.69733
8.68754
9.96092
10.6404
9.38635
12.2417
12.0908
12.245
10.6133
11.9927
11.1417
9.69722
29.143
28.5178
27.825
28.8597
30.0896
28.7669
30.2995
30.3266
28.8691
28.12
27.2095
28.7653
27.62
31.4472
30.4389
-4.82437
-4.56712
-4.33162
-3.76615
-4.94768
-4.48829
-3.84983
-3.72445
-4.30342
-3.9802
-4.43529
-3.49754
-3.75278
-3.19407
-3.29027
-3.92017
-6.5609
-6.3858
-7.16757
-6.42936
-6.16588
-6.23043
-4.57626
-6.23251
-6.28913
-6.90458
-4.5913
-5.26075
-6.02376
-24.682
-18.2088
-16.5137
-10.7045
-24.6527
-30.0708
-5.95505
-13.4287
-10.045
-15.6095
-17.0912
-21.8009
-19.1951
29.024
27.9187
31.8922
29.2103
30.5749
32.127
30.0944
27.4027
25.2576
26.4947
29.1676
30.6826
29.6465
21.2829
23.1779
29.5269
29.0513
22.9122
21.3938
23.9721
10.0566
9.92353
9.71541
8.82654
9.80077
9.18841
8.87661
9.54163
9.84138
9.78866
9.35525
10.1359
9.92349
9.49887
-2.76332
-2.35675
-2.5434
-2.79064
-2.35334
-2.81179
-2.9786
-3.07515
-2.77332
-2.89424
-3.06509
-3.2852
-3.00147
-2.38579
-2.53555
-2.25895
-2.20054
-2.77873
-9.46754
-9.38648
-8.88813
-9.23236
-10.2208
-10.3211
-9.43227
-9.81467
-9.55714
-9.77223
-8.51138
-9.02566
-10.0891
-8.60507
-9.28343
-9.06089
-9.59163
-9.55861
-9.60032
-9.32227
-3.77917
-3.31619
-3.04376
-3.41527
-3.41901
-8.35215
-8.03239
-9.61804
-9.19323
-8.28689
-9.05881
-8.12267
-8.38162
-8.53003
-9.02117
-8.03318
-8.7658
-8.19456
-7.96725
-7.98824
-7.6606
-8.17741
-7.52172
-8.03095
-6.89431
-8.42803
-8.41614
-7.84149
-8.58904
-8.13524
13.5588
13.9073
13.9301
13.6178
13.0478
12.9166
13.3525
13.8046
14.3555
14.3502
13.7678
32.4461
33.0908
31.5088
31.4171
32.2643
33.53
34.1166
32.483
32.3119
34.7556
33.6423
36.3707
32.4658
31.7776
33.6212
14.7366
13.9564
11.0208
12.389
11.839
13.2192
11.5395
10.0977
10.2967
11.5928
13.2569
12.3254
13.7006
10.4648
10.9442
12.3864
8.81697
8.84215
10.8733
8.3909
7.10888
25.3432
26.3487
25.7812
24.7717
25.2445
24.5983
22.0186
21.0461
19.4058
19.974
20.3011
20.1472
23.0957
23.1229
21.1096
21.7264
24.0073
40.4545
42.6099
43.0341
40.4924
39.6179
41.3329
40.5581
41.263
42.5972
39.8553
43.5296
40.3332
39.3617
46.0201
44.6117
44.5
41.1671
44.2068
45.1765
41.6103
0.700923
1.43413
5.13756
3.99694
10.507
1.24441
2.74017
7.95366
6.01504
8.48443
13.7387
13.1383
7.88942
11.373
-9.3551
-9.27966
-9.20002
-9.05608
-9.30317
-9.37335
-9.11266
-9.10178
-9.19599
-8.92877
-9.01848
-8.94749
-8.97449
-8.86627
-7.24662
-6.92986
-6.85987
-7.19825
-6.75407
-7.19869
-6.79997
-7.29443
-7.0228
-7.15464
-7.02485
-0.169232
-0.142916
-0.442898
-0.492981
-0.876643
-0.173576
0.0223879
-0.455883
-0.238626
-0.507923
0.0522274
0.0545905
-0.173202
0.035575
-0.75915
-5.81297
-5.89407
-5.92152
-6.05173
-5.89653
-6.10092
-6.25405
-5.98223
-6.14384
-6.64093
-6.68347
-6.50974
-6.51725
-6.13275
-5.93468
-5.99729
-6.12045
-6.00415
-7.51865
-10.5566
-7.23506
-8.64861
-7.31713
-10.2667
-8.72346
-7.79102
-6.51485
-7.50771
-9.34213
-6.2805
-8.19306
-8.8748
-8.17914
-9.24254
-7.72106
-8.2875
-5.39974
-8.30751
-7.59238
41.2223
44.8816
43.5028
45.3255
41.1483
45.3353
46.4186
43.7419
47.6498
49.3934
45.8716
37.8169
38.6001
43.1456
38.4395
4.36006
4.71418
2.73172
3.15061
5.04941
3.24698
5.53965
3.86173
3.78749
3.24642
23.0095
22.9646
23.6241
23.632
22.1908
23.4424
24.025
23.8998
23.9382
23.8621
21.365
21.9028
21.6465
22.185
21.8443
-14.3708
-13.9263
-15.9402
-15.5433
-14.1663
-14.8401
-15.0386
-16.9819
-16.1774
-16.9392
-16.9199
-15.2516
-15.8775
-14.9589
-17.37