/*--------------------------------*- C++ -*----------------------------------*\
  =========                 |
  \\      /  F ield         | OpenFOAM: The Open Source CFD Toolbox
   \\    /   O peration     | Website:  https://openfoam.org
    \\  /    A nd           | Version:  10
     \\/     M anipulation  |
\*---------------------------------------------------------------------------*/
FoamFile
{
    format      ascii;
    class       surfaceScalarField;
    location    "18";
    object      phi;
}
// * * * * * * * * * * * * * * * * * * * * * * * * * * * * * * * * * * * * * //

dimensions      [0 3 -1 0 0 0 0];

internalField   nonuniform List<scalar> 
146459
(
-2.04994
2.67148
-1.47222
0.850681
0.786276
-1.29827
-1.53795
-3.21752
4.92333
0.965667
-1.17337
-1.25786
-2.11534
-0.982148
1.78129
1.31619
-0.304366
-1.81097
1.77659
-2.36189
-0.712962
6.48017
3.21316
-8.28663
-1.4067
-2.00054
3.45451
5.0262
0.0392466
-2.42055
0.876912
0.561491
-2.62189
-1.60964
2.85826
1.47316
-25.7042
47.7309
-24.7198
2.69307
-27.9836
20.3349
-18.0555
28.2479
10.6891
-16.9197
-22.0173
55.191
10.3189
-37.2619
-13.9812
-23.3702
9.36775
21.286
-6.73203
-3.86494
52.6765
23.8005
-19.683
-1.03018
-28.4347
-35.2195
40.284
-10.4849
12.4558
-30.4055
-38.6185
8.45058
41.5765
-9.60447
-19.5162
10.0191
6.29995
25.2575
9.79369
23.9874
-4.17419
-29.6069
0.16463
24.1708
-14.5417
16.7751
7.15843
0.0538551
-10.2873
9.74224
17.3202
20.0934
-18.2561
5.32106
-11.647
22.8613
8.8791
29.3724
-17.452
32.3328
-44.2531
15.3069
3.77822
-9.46381
23.8458
-14.2174
-31.09
17.282
-11.3673
-3.94244
9.57749
-25.888
24.1861
17.0088
-10.2185
16.6633
34.9787
4.07277
-14.8653
10.1272
9.77617
-3.62825
-4.19024
0.936107
6.88238
-6.20282
-3.70702
6.28159
7.20279
-6.55928
-4.83375
0.423625
4.40157
2.37759
7.51308
3.60046
-10.6899
-18.5207
-17.9351
21.3433
15.1125
-18.2625
22.1615
-3.71589
-0.183174
-4.99768
-0.487922
-12.7769
-16.0068
-1.17536
-1.33853
-11.8366
-5.70009
10.8247
6.71198
-4.12191
17.467
8.8164
-16.2396
-2.9278
15.4515
-15.161
-6.07626
-24.3638
4.72594
15.5159
-17.5208
-7.33094
2.67137
-17.5911
-3.01538
-9.16523
10.2023
-11.1764
-21.9339
-11.6641
-8.36906
-2.29443
18.0889
-7.42543
-8.15674
-0.752429
0.540115
-11.6908
21.6069
-12.2105
-8.44498
0.693399
-0.405161
9.33994
-1.07945
1.16882
-9.42931
-5.41083
6.30579
3.13645
8.98104
-8.92887
-3.18862
-5.6158
8.75224
11.0266
0.418373
-12.5245
-0.798691
1.51612
8.26361
-0.348064
-11.3112
12.8281
1.28012
-9.79062
-13.877
1.38746
-12.9449
0.0965927
-1.45977
0.522847
0.840325
-0.717469
-0.192422
1.00648
-0.453336
-0.61821
0.354078
-0.0816764
-0.196498
-1.18159
0.478555
-0.752653
0.0543066
-0.967537
1.43608
-0.786267
0.387237
1.62423
0.433933
-0.563323
-1.49484
0.22829
0.730196
0.665745
-0.852685
0.462765
0.110487
-0.529239
-1.81506
-0.270108
1.11763
-0.811481
-1.20008
0.428717
-0.291892
-0.406932
-0.247063
0.0670756
-1.37381
0.495258
-0.78814
-4.19752
10.3602
6.83504
-12.9978
-1.96185
-17.3133
5.60774
13.6674
-16.4096
10.2502
-9.88492
-23.838
-6.45033
16.1273
-9.67698
-12.3213
13.8351
4.09394
7.90992
-24.2098
6.41499
-10.8617
9.01581
-6.41731
2.46313
-5.06163
-0.616242
5.58681
4.04524
0.137549
-1.26043
-5.29443
7.95835
-1.61445
-6.20635
12.1908
4.96778
-9.20026
6.44632
5.12827
-6.90961
9.37274
0.327621
6.91391
-8.50196
-9.5553
8.26848
13.2406
-8.27277
0.00429681
-6.53904
0.867422
-6.29954
11.9712
-8.992
-4.6207
7.07367
6.0462
-7.00169
9.86134
-8.90586
0.150484
5.89572
-7.50238
-7.40403
15.7738
-0.30236
-9.27331
0.583665
-6.6019
-4.18054
-10.6547
7.33283
-10.7592
1.95797
-0.0515154
-8.67286
-2.03484
-7.635
-1.68982
-4.54858
6.45142
-9.53784
5.49557
-17.0458
10.7659
-0.34072
-0.56386
9.25761
9.99741
-13.1747
-0.997979
4.41848
12.904
-9.90761
-7.41492
10.6824
0.44036
-6.70425
4.43421
19.1522
6.52469
-12.0455
10.6574
-5.13655
-9.95038
20.9093
6.21704
4.92527
-23.1495
12.0072
4.72295
-10.5514
5.22743
-10.2098
16.8784
7.0405
-15.5048
-8.41401
-5.66309
16.2944
6.24704
12.2196
-3.93781
-13.9449
9.45719
-0.399881
-2.01681
6.7984
18.9532
-2.23562
10.8846
-9.0489
11.0885
3.21285
-2.08178
24.0059
-6.11898
-6.54387
-7.80393
-2.09133
16.4391
-12.9228
-9.03834
15.4173
0.0290006
-7.83293
-12.9173
0.0234847
-1.16136
-24.5858
16.7088
6.57631
-19.673
11.9353
-8.07672
12.5617
-20.5164
-10.1598
22.5995
12.5962
-27.9176
-5.19503
2.43646
-3.13942
-18.7175
-2.72894
-12.4278
-3.62899
-5.39647
-24.6181
-13.7724
-10.908
-6.91624
11.7126
-0.941049
-3.30107
-7.47048
-5.34128
0.128318
5.01591
0.19705
5.55827
-13.4178
2.5183
-9.41755
8.55692
0.988945
8.99691
-12.8562
-1.48152
4.03389
9.16023
-13.4949
4.69554
7.31781
-0.947847
-2.43026
-10.1168
7.43793
-3.36307
11.1946
-3.14553
7.01633
12.7352
1.29439
10.1774
13.0063
0.0981335
-6.23737
8.28298
-2.14375
-8.47547
11.3268
-2.75324
1.33036
-16.0432
-15.2778
-1.37733
13.7478
2.90737
11.9443
-25.8917
10.5669
16.901
7.78156
-16.3996
-7.58219
8.55499
15.9282
0.199365
1.20033
9.22959
0.896931
11.6816
3.26648
-0.0259077
17.8105
-10.7663
22.422
-5.82351
5.24774
10.3755
-9.79969
-8.02198
4.56545
-2.36697
-16.9357
5.51516
3.39856
-6.13166
-9.35833
20.7377
5.8924
-7.45862
-4.05897
-5.29937
-3.85868
1.63817
-16.8338
19.0543
20.6679
-21.3683
-3.15826
3.99156
13.2706
3.4057
16.445
-1.75165
-13.0551
5.3467
18.9292
-7.83089
5.82344
11.8971
-13.729
15.4572
3.94175
-19.2841
-0.114881
-2.09208
17.5493
-13.6646
15.8547
-1.37571
20.7755
-14.0531
19.3582
-14.9104
0.821477
6.12379
9.70282
-16.6481
4.46549
6.81051
-10.4545
8.27664
7.16868
-10.9798
-2.92772
17.8156
-6.61118
11.5761
-8.38002
0.0516142
6.75889
9.75443
7.62258
-12.4239
9.43133
-4.63002
-2.54996
15.6377
-5.46514
0.161514
7.00717
0.992212
-1.84
10.7466
6.92041
15.1171
11.8665
10.0881
-4.89126
-17.0633
-4.50958
8.80461
7.57146
5.57853
-12.2287
0.696819
18.0453
-6.51344
-6.81786
3.39381
-6.29313
11.8717
-16.6166
-4.8782
12.3484
9.14644
11.1713
-6.77644
-21.0115
15.7184
-9.06681
-15.386
8.73448
1.65078
7.8914
6.17617
-6.00203
18.5705
-20.7345
7.99715
7.17038
2.49892
-17.1576
7.48832
6.52044
11.5651
-10.9151
-5.87674
-17.5606
6.05863
17.3788
-21.1072
3.66034
11.5701
-4.92549
-6.11546
-10.0663
-14.8937
-7.59244
5.63713
7.06244
-10.2006
12.1576
11.6287
-0.0865295
0.0229253
1.36042
-5.09358
-6.70606
10.4392
-8.92956
16.3486
-11.7022
10.2689
12.5691
-11.6221
-3.9825
6.6816
-10.6886
-1.46901
2.33595
-4.96315
-11.3515
9.59529
6.71936
-10.0444
5.08122
9.23164
-2.19059
8.7264
-15.7675
-0.812733
7.62439
-16.2715
6.4565
7.08044
2.11136
-1.56742
-0.6945
-7.34938
0.296032
7.74785
-9.07176
-1.28606
9.66331
14.2584
0.353341
-3.65222
-10.9596
14.9987
-9.812
-2.27176
-1.08167
-0.298268
-6.08284
0.547478
5.83363
-9.01232
8.71405
-3.92316
-6.82579
7.35191
3.39704
8.38766
-12.3108
-8.81858
-0.193739
12.3019
1.10424
0.392871
-13.799
-0.202623
12.5046
0.90912
-8.62346
8.49649
0.935566
-9.03918
9.13952
-0.845652
1.03403
-7.8645
0.747636
3.34775
-6.01982
-10.7619
7.89333
-12.9438
15.8124
-10.5763
-0.185587
-4.75354
17.6257
-4.97885
7.31093
-7.6072
-9.36341
9.65968
-3.79915
11.1101
6.10703
11.11
-10.1653
-7.05171
-4.46932
8.26847
-5.35349
-10.5222
-3.14948
1.31567
7.12695
13.8089
-17.2259
-3.70991
-11.6602
14.0336
3.58359
-19.1024
-13.5735
-1.23611
-19.3724
9.38249
-0.927697
4.84668
-5.51094
1.59196
-8.27091
7.34322
-7.04104
0.331966
-4.6179
-5.23323
-1.80781
-7.43237
9.94097
2.04878
-20.2607
3.42865
1.00138
-5.32238
0.0891558
-9.32408
6.05048
-1.83272
1.051
-2.95919
-0.300377
-1.53234
2.56305
-0.816247
-3.71767
1.97086
1.67784
0.351679
0.533533
0.90601
0.845783
-2.56804
-0.301415
1.20742
-2.08902
2.19878
-0.411179
2.70166
-3.9449
0.907048
-1.31733
1.66473
1.85139
1.58317
-0.198834
-2.12946
-0.641615
1.13155
0.0723946
-0.0631357
-0.779277
0.770018
0.088906
0.321661
-0.338172
0.607358
0.107027
-0.979312
0.264927
0.260999
0.610238
-0.26388
0.078486
0.00131569
0.181197
0.0196162
0.0588697
-0.0191257
0.0612596
-0.10527
0.786855
0.774234
-1.45406
0.614856
0.260905
-0.79385
1.38958
-6.45007
6.14122
-18.1728
18.4816
-22.1808
2.93337
12.7974
-2.53155
-10.6277
-9.02153
17.8119
-11.4196
-8.9239
11.4594
-5.9433
12.2959
-4.6367
14.8033
-4.02539
9.75603
10.6302
-2.47571
-19.5741
4.68688
-16.5361
-0.752441
-0.884208
-7.83023
-19.3336
12.4716
-6.84946
7.28957
-12.9117
12.7008
-0.981627
-2.20348
6.89037
-17.1554
-5.08609
8.76585
9.02104
-1.09913
-0.0425274
0.936564
0.205098
1.69367
-0.395301
-2.39751
1.65115
-7.46759e-05
1.45906
-1.85428
-1.25116
-2.25375
-0.939062
4.44396
-0.140836
-1.11656
0.00624125
-2.39458
0.149409
1.04273
-1.19221
-0.0305889
0.715623
0.743435
0.819289
-13.9712
13.511
-13.6968
14.1569
2.29317
-3.19426
-13.0701
3.38494
11.5593
-20.0963
5.15209
5.59642
13.6021
-15.8136
-5.26121
7.55437
12.2809
-6.32657
-0.357879
-0.292582
-0.0152617
12.5887
0.146653
13.4555
11.7059
13.1629
6.44471
-7.13962
-16.466
13.6866
9.91905
-12.5723
5.49456
-0.0618841
-2.74224
-4.41407
-9.30972
-5.20179
-10.1127
8.15623
-8.20563
5.54395
-3.57976
14.2746
-12.4538
3.78163
-5.60242
-9.22008
16.2649
7.22987
-7.62006
-6.01409
-16.2794
-3.79446
10.9033
-7.12163
-10.7697
-4.71772
7.28181
-11.0324
-4.93908
-11.8393
-1.2492
-1.26669
-0.150217
2.66611
1.34691
-0.81204
0.452089
-0.986957
-1.02515
0.364003
0.926023
-0.264878
-1.07524
1.07108
0.00415764
-0.129746
-0.94549
-6.4446
0.635354
19.5677
-13.7584
4.60313
-11.4967
0.449011
-13.1335
-6.01814
19.787
-10.5545
-5.71667
3.13765
14.0506
-11.0011
-15.682
12.6325
15.4837
-7.45125
-24.3259
2.77041
1.37139
2.81462
-5.41622
1.23021
3.67992
-4.40816
2.09963
6.62623
-5.9589
-4.92925
4.26192
0.607833
5.54913
0.469263
0.528669
2.89378
0.732145
3.47644
1.18641
-5.1712
-1.43142
-3.00267
-0.219079
-0.478866
-3.86953
5.49937
-1.15097
-1.73694
1.99022
0.849215
0.226364
-6.24678
1.1167
-3.27016
-2.67958
-6.54398
5.35403
-5.64566
1.22914
1.19048
-6.92301
-0.850398
-0.816242
-4.87734
-5.37935
-3.70101
4.07525
-7.8832
-5.2022
5.42815
7.65725
-0.801727
-2.38515
-4.69633
8.3748
-4.27073
-4.9058
-4.64153
5.02543
7.9909
8.43486
-4.21461
-8.49098
-0.488733
4.28206
9.79379
-3.55205
-8.62689
1.43615
3.15543
10.6388
-0.185263
-7.63073
3.44098
-1.06598
-10.7794
-11.6284
7.01039
2.87727
-6.37037
1.71003
5.34454
-7.81817
0.7636
-6.12755
3.95841
3.87916
-14.5417
-0.354152
7.99592
6.89997
-5.22375
-0.885937
-8.43205
8.3979
-1.40117
-3.05267
-3.94406
-5.09554
7.36589
-10.1493
4.69963
-5.31597
-10.0571
2.39123
-3.11835
6.07166
-2.66589
9.01552
8.50261
-4.28474
-5.61904
-1.96981
2.65425
-11.9211
3.95265
0.0638422
7.90459
-5.60088
-7.20614
9.28268
-1.4737
-6.89494
6.55056
-2.72278
-8.11252
4.1928
0.387952
-5.01073
1.73336
3.34121
-4.83501
-5.7766
2.80781
-9.03149
-15.145
12.6
15.4078
-12.8629
-2.59781
-17.5534
8.67178
11.4794
-26.7187
10.0751
14.0458
8.99875
-13.4303
-13.1218
-9.9416
-7.7784
0.540469
-12.296
-1.21583
12.9714
-1.03086
11.3738
-9.80244
12.8647
-13.6973
-0.198264
-11.3602
10.0819
9.95015
0.634321
-1.63707
-14.1422
-16.2309
15.5698
10.7362
9.73966
-11.7962
15.927
-13.0039
-0.986266
2.21014
-2.51411
-1.44107
17.9116
-14.2604
-0.124132
-2.16989
2.15709
0.136931
-0.217437
0.093305
-2.25961
-1.39474
0.140192
3.51416
-2.47705
-8.63866
-2.4115
6.0604
4.98976
0.239377
-1.53097
-7.34706
3.53722
-2.37031
-3.64397
-0.16
2.30248
-6.84383
3.99192
0.44041
-1.14323
-5.46122
0.300178
-0.501099
0.294226
-3.01295
-0.181737
2.47902
-4.40238
-0.396864
6.29727
3.41332
3.90949
8.45549
-15.3374
2.97244
8.66296
-11.9516
7.19813
-18.7848
-5.70081
11.4901
12.9955
-15.9542
0.105112
-2.93574
-6.46922
-12.2267
17.1811
1.51485
8.35375
-4.83478
-9.9882
7.79401
-7.49498
8.15645
-0.190962
16.6479
-9.39347
-1.52267
-1.03547
-16.3771
11.0906
8.65792
-24.5833
14.974
-16.11
7.53611
-14.8324
0.312634
17.8129
-2.73388
10.5156
-5.11031
12.4076
21.8148
4.57579
3.894
-7.11565
-5.40524
12.4446
5.47907
-8.24774
-9.67596
3.71293
4.87972
3.85198
8.69784
-3.31432
-1.48952
3.41843
8.43484
-1.23652
-3.74083
8.39577
-2.6061
4.24686
-5.06339
-12.9331
6.36806
7.55045
-9.54499
5.70747
9.13317
-2.19489
-1.45922
6.98474
7.02816
2.89599
1.48264
6.70561
-10.2159
-2.6434
-0.899234
-17.5644
-13.0783
-4.06619
2.07909
23.5456
-21.5585
-17.4718
0.186371
13.2192
-15.4713
-3.64326
1.64272
-1.81957
-12.8044
16.7031
-8.63798
7.00478
-7.42445
-11.518
3.47121
11.2857
-4.53909
-14.4679
7.72131
18.2922
3.1226
-10.1291
-7.69295
13.1807
7.71302
9.78167
-6.84294
-10.6518
15.017
-7.60203
0.298045
-19.5849
8.49031
3.4016
-6.68058
-14.2741
14.1265
-2.90038
-4.64652
-10.38
-16.0286
-10.2723
6.64287
6.08052
-2.45114
7.72333
-12.9622
-5.03338
-10.3946
13.3342
3.02968
-5.96922
11.5572
-16.5202
-5.43158
3.00053
0.0538939
8.50275
12.5459
3.78878
-13.9912
14.2838
6.35032
0.0988936
-6.36678
7.63572
16.2331
-17.7346
-6.13423
14.7463
-7.01174
12.0176
-2.90736
1.97362
10.7478
-0.175529
16.3536
-4.88922
4.7688
15.6529
15.447
1.58638
12.4048
0.941271
16.5788
-1.86717
16.8114
-8.18275
-7.25555
2.91373
12.5246
-9.29085
-2.72129
3.82939
0.722422
-10.7704
0.757122
11.5537
-12.4161
1.58486
5.68082
-9.83348
1.43137
-0.227346
4.52548
5.84316
9.93959
-10.1019
-5.93765
14.6945
-5.9224
-2.87495
-1.03614
3.39314
-7.74603
-1.5695
2.59242
-9.96967
-1.508
-8.3157
-4.25493
3.08272
-4.76544
-3.91681
2.66232
8.8926
-7.6381
3.20995
-3.83725
-3.28952
-2.21299
5.15781
-5.81976
-7.88457
3.40229
-6.18262
-12.3967
27.3085
-7.11182
-7.79998
5.11836
-16.7436
-0.771443
5.57419
22.6633
-23.1192
-0.742658
30.5109
-6.47108
-23.2971
7.47281
14.3552
-35.1451
13.317
22.2636
-17.4321
5.06989
20.1686
2.07003
21.0668
6.66643
-2.32496
18.8592
4.53256
17.64
2.29871
16.3178
21.6659
-8.25921
-8.73176
35.8502
25.6985
28.9249
-17.4881
8.06191
-2.16849
-10.4397
4.54623
-10.6955
17.0152
1.74223
-12.6537
4.26667
-1.47549
9.86252
-5.3936
-12.9625
20.0016
-1.64542
14.8369
-6.64042
-13.5901
-1.60777
3.79102
-11.2599
3.64539
5.446
19.7992
-19.5578
-10.681
-9.98073
19.0844
-7.18452
4.80028
0.776469
-2.45523
-11.3697
-5.36404
-1.09556
-3.6231
-6.13818
-9.79651
-16.5423
8.78103
-2.21947
-7.79161
-12.3738
-4.45746
-7.04477
-2.85805
-10.9307
5.99712
-9.77073
4.04597
0.344378
1.68132
-7.16659
3.79102
7.42155
1.01256
0.836372
4.53042
-0.0887125
-1.6339
3.56046
1.31434
-3.22793
-0.890051
7.90899
-3.59049
1.37512
8.00999
-4.74467
-0.928424
-2.33689
2.82268
7.6052
-2.41789
-1.49218
6.8615
-1.1693
5.49308
-0.817442
-11.9482
-2.40486
15.1705
-8.76561
10.1043
-2.15611
-13.7863
6.66314
-2.19662
9.31975
-1.66425
-0.058416
-7.04295
-2.57028
-11.0421
-10.0213
9.91048
-2.29402
-11.7247
-2.09539
11.6574
2.16273
-5.59346
-19.9176
-3.51845
0.160273
-6.47042
5.80776
10.89
-10.2273
-19.8912
-0.440525
13.8613
-6.91085
7.96602
-15.1383
14.0831
7.26187
-19.7662
-12.1675
-3.01711
11.6661
-5.75839
-6.16684
-10.664
0.314271
14.0473
-4.02692
-10.3347
17.9327
-4.90449
-12.7139
-5.69842
16.5545
3.19126
16.3832
-4.14899
-3.07384
11.8944
-13.7251
2.59996
8.34669
-14.0205
-0.44872
-12.7662
1.728
11.4869
-7.40568
0.143541
6.81342
-2.0989
6.58765
7.50559
6.77874
7.49218
16.5679
8.54978
-9.97674
2.56239
-6.98187
-5.84342
8.61104
4.72456
-14.0965
-2.7425
10.9956
-2.98436
22.1903
0.207035
-4.94469
-17.4526
13.9057
-1.36264
9.64721
5.14994
-11.4296
20.1854
-3.79812
17.5914
-8.1119
-5.68141
21.1399
-12.1295
-12.8086
-22.5979
29.2861
-6.48111
-5.4735
-13.1617
-3.96278
-7.87659
-1.67815
14.7047
-13.4732
4.23401
-8.59229
9.68145
16.5023
5.89009
6.65752
-16.1171
8.53396
-5.43705
-19.069
8.38891
2.25727
-19.8238
5.74213
-11.5968
0.455424
17.4011
-17.1804
6.86197
10.7739
-16.9118
14.8653
29.8344
-25.8173
-22.8734
18.8562
-1.88065
16.0651
15.65
-4.25052
27.3803
-10.8227
-12.3071
12.4512
-24.2204
29.8063
-18.0371
-16.7044
3.33825
15.3791
-32.2914
15.0317
7.06513
10.4468
-41.7323
-20.1937
10.5545
-14.3805
25.509
-0.50191
14.1341
16.3369
-29.9691
-12.2806
9.79554
29.2398
-26.6512
7.85816
-27.0884
12.206
-10.1291
46.0593
-28.7844
-2.68356
-14.5913
25.0502
30.8105
-9.80142
-21.3219
28.7002
-20.522
13.1438
-37.7759
-12.3304
47.3504
6.39998
-5.38062
-31.2193
-1.1759
12.9813
8.74007
-42.2434
-19.7061
-20.6522
25.6875
14.6709
-15.8179
3.221
-7.10917
24.5326
-30.805
25.9217
-19.6492
26.8201
10.6938
-4.30206
-27.1889
26.1103
-1.93146
-35.0234
6.14981
-24.8591
0.318702
3.88812
-23.3554
-17.3215
21.8125
4.42791
31.9281
16.7044
-29.589
3.94798
9.10358
-1.57058
-11.481
-11.9894
11.4602
4.47725
5.71369
-12.8096
-4.89351
-8.71849
14.7094
2.14568
-8.13656
11.2912
-16.5713
-3.43842
-4.5085
-2.46473
18.4334
-3.73088
8.32596
-1.05484
5.63548
10.1287
6.50552
11.3915
-3.53209
14.5622
-6.90158
-0.78676
2.90285
4.78549
-4.34544
0.227298
-2.78344
2.26052
-1.74584
-4.86012
0.664783
0.808975
-0.515727
2.29994
-1.11943
2.50111
-1.16544
-1.85139
-1.30633
1.29964
2.30663
1.46152
-0.266746
-5.23814
1.86449
6.2765
-3.028
-1.98284
0.415889
1.67328
-3.83501
2.72464
-1.47707
0.362235
-1.6098
0.580002
0.906525
1.23811
1.64947
-2.39902
-1.72621
1.21235
1.09386
-1.55381
0.993144
1.68073
1.48432
-2.83905
-4.01035
2.61925
2.29762
-2.16379
4.89747
-0.413724
-9.51592
-10.334
24.1727
-4.32283
-15.2207
-18.135
23.8398
5.89199
7.82536
-0.12291
-13.5944
-0.218407
-9.11035
6.48098
-8.98962
-12.8746
1.97867
25.2866
-14.3906
-0.90529
12.2034
-6.42909
16.4858
-10.2751
8.45978
-15.0118
8.3382
-16.701
7.45751
-6.23022
-7.27181
15.4807
-9.11282
11.2208
7.88533
5.69112
2.9093
-4.17046
-6.04956
7.46744
-16.8304
0.250128
8.08096
-12.5411
5.97066
-3.80697
-2.13011
-0.0335873
-1.24391
8.43476
-1.22019
-1.12643
2.47583
-5.91324
4.56383
1.22405
-4.42252
2.07205
7.40366
-8.10395
-3.10668
8.63559
3.83086
-2.42096
-4.77971
3.36982
2.14466
2.91025
-0.99458
-1.07281
-3.84585
-3.49731
-1.9198
-6.2779
0.359636
10.2288
6.98929
-3.7023
-13.5157
-1.67127
5.56068
6.33934
3.06207
2.25596
7.20886
-1.24965
-2.89715
2.66798
5.33863
-11.7089
-10.8072
2.81393
15.2021
-1.63501
0.190086
-9.36228
4.52198
-7.25576
5.40176
8.58167
3.20886
-6.45191
4.16877
9.97358
9.47455
-10.142
-0.967519
16.4572
-2.41119
19.0243
15.0255
0.489591
-34.5394
-0.044186
26.4774
-7.40886
-41.7167
10.238
16.0557
15.423
2.39473
-14.7516
-29.3598
43.0945
-12.3509
-28.3488
28.6823
24.6501
43.1087
-40.4342
2.70108
28.7884
11.6193
-12.0404
16.5917
-4.59552
9.73823
-21.289
-28.46
21.9612
9.19986
14.1814
-16.164
18.3399
-23.3533
14.0751
43.3956
12.0813
11.6383
-5.37969
20.9122
7.22488
-17.6072
9.0363
30.5321
-9.47579
6.05
-13.1145
11.2788
22.7479
-3.86075
2.38455
3.2552
34.3902
4.94491
6.79845
-27.2892
15.5458
10.6854
26.8657
-32.6062
0.513442
19.8394
-13.5544
32.1537
-20.9548
37.0318
-16.1057
5.93959
46.8073
3.01011
-22.1818
-27.6356
22.3112
18.0322
-20.504
23.6594
32.1785
-23.6843
46.2451
-0.274482
1.34132
30.2142
15.2518
-45.3133
15.4266
31.228
-18.4152
18.1887
-45.0868
33.7722
-12.7299
-3.32714
15.2283
20.2773
18.7899
24.128
12.6324
-4.89788
26.0377
10.9876
20.4347
-18.5794
32.2804
1.72563
19.1753
-0.558683
15.8242
-0.594479
16.7544
-3.67956
-12.4804
-4.93812
20.6103
-16.2666
-2.41769
20.821
-23.3414
12.8785
1.44404
-16.7402
5.54137
13.7656
-2.55255
21.4479
4.7037
-5.44355
14.3757
3.94634
18.2914
-2.91396
13.0667
-15.3023
-17.7172
-13.9639
10.228
21.453
2.62513
-19.7145
-0.627786
16.2076
4.07778
-1.61149
13.7413
15.3079
0.881242
5.25884
16.3353
-22.9831
-1.59672
3.96815
0.0869024
14.2189
2.96544
10.7309
13.7394
5.43326
9.55676
3.22219
-7.09968
10.152
16.1964
-5.15707
8.26238
-8.37939
5.27408
-0.0324177
-3.86271
-1.26195
-10.1994
8.90603
-7.57929
8.87263
-3.23894
-12.5425
5.58204
-6.44914
10.6411
4.71405
-4.96424
-1.51732
-6.41785
2.03343
-8.06084
12.4453
4.81028
-0.587017
-2.52442
9.36814
-6.90826
12.6462
-12.6605
5.46828
-1.18719
-9.62522
-6.89797
-9.47507
1.27189
7.15885
-0.648366
-1.17876
-5.33172
17.605
-18.507
-5.87844
4.43846
-0.569052
-5.95775
8.4413
-6.72589
-7.51668
5.80128
3.74754
1.77747
2.91629
-8.93465
-10.7125
6.83656
12.8106
1.8891
4.39745
-13.0124
7.57605
-14.6216
-9.65098
6.33855
-6.6241
9.93653
5.62501
-7.69994
-7.68507
3.10008
1.97976
2.60524
9.05935
-12.347
7.07812
4.99488
-3.01365
4.93793
5.24027
1.89534
5.70943
-9.00241
10.2534
3.68695
-0.259994
-5.21076
-3.09231
16.376
-8.07292
-26.537
1.0731
14.0645
11.3994
-1.6507
-26.2889
1.40251
-16.0462
-2.54684
13.3823
7.95506
-0.866857
-23.1344
-20.5728
9.92906
11.7169
0.125894
-22.3494
-5.42125
12.258
-17.9263
9.95823
-19.2378
1.43742
18.4719
2.20092
0.781191
-21.454
7.77656
11.9477
-1.25232
-6.87554
-4.75676
6.17837
5.45392
-13.8099
-8.46123
15.3956
-13.0668
13.6208
7.22256
1.9367
-12.8025
-13.4714
11.6092
2.06417
-14.7544
-4.7289
18.7123
-0.36261
-3.60444
-18.2007
17.0484
-24.4932
2.99582
17.8929
-2.01367
-26.1147
3.6352
-20.9183
0.703947
-16.7293
14.9962
3.26943
-22.1236
0.260825
-23.1061
-14.5318
-17.4048
4.09964
13.8747
-0.569574
-8.28767
5.35611
-14.4732
-1.5323
6.57343
4.89324
-9.93437
12.3771
5.93038
-19.8398
1.22397
11.0477
0.105469
7.18345
0.613953
18.7253
9.1507
-15.498
-12.378
11.9683
7.82082
-1.06383
-16.7687
10.8634
17.8735
-5.39969
-2.21826
9.27394
-12.6684
11.1553
2.21831
6.77841
-3.9292
2.50689
16.2129
4.44015
-14.919
5.35139
-10.5087
4.23476
17.1374
-4.86076
13.5012
4.83757
9.19993
16.2848
-9.27178
26.9358
5.12604
10.1051
0.634081
-15.8652
10.3154
-11.7451
6.5558
-4.71092
1.15695
13.8693
-2.81339
8.20759
3.49776
-0.36369
-14.8792
-8.70572
-3.37735
13.24
8.43844
-4.0781
2.64768
-7.00801
5.65029
8.0131
-4.32534
-9.33805
11.4848
2.77979
-8.61427
0.726467
12.1048
-4.81813
13.2047
-4.03976
-7.59563
2.38767
2.59802
6.07337
-10.4931
9.71381
-6.67452
8.28613
-1.06548
5.91651
0.534395
-4.51531
-1.9356
1.1739
2.92436
1.81826
-3.38028
2.1875
2.36668
-0.830474
-2.01541
4.11039
6.80558
-7.99162
-1.98454
7.45945
-3.28741
-3.47561
8.95774
-2.73851
-2.74362
1.96604
-4.99178
-0.449865
3.00198
-1.54996
-2.28249
-5.05921
6.07665
3.04436
2.23247
3.68091
-6.15262
4.13777
-5.73654
-6.96847
-4.86734
4.7257
7.1101
-9.10605
0.998872
1.13871
-2.28294
-3.05623
0.471834
6.82831
-8.48446
-0.626788
5.72216
-8.64973
9.75587
-6.58605
17.0339
-4.50815
-7.65412
7.21762
-8.85323
2.63449
-5.46383
6.0954
-8.26591
-0.113804
-0.104748
-4.0581
-10.0555
-9.10157
0.100773
0.147566
13.4308
-0.375418
-11.3461
-1.7092
16.4741
15.6837
-19.8363
-12.3216
4.03255
10.8931
1.54845
12.0952
5.36809
14.3987
2.99382
-1.70875
13.0639
12.2279
23.9464
-12.1818
-3.63561
-8.12908
0.483674
-1.88622
25.349
-15.0541
-0.647959
16.1858
-15.1407
22.6464
-14.7164
-11.5656
-1.09236
21.8525
23.1931
-17.0096
-6.48403
0.300549
0.609703
21.4911
10.8242
-13.488
-14.3458
15.5447
-1.72675
-1.06418
13.4801
-6.46698
-14.7334
15.0903
12.7254
-0.327724
3.0633
-15.4609
1.66683
13.8543
-2.79577
21.329
16.8194
-22.987
-15.1614
-2.69432
10.4267
13.5966
5.37382
8.75126
11.4852
2.53686
-14.3498
-1.88089
15.033
11.9591
12.3219
3.28323
-23.2069
-19.2407
7.13504
11.2923
0.813364
-12.7601
-0.739296
-5.7413
1.3404
16.9477
-6.32898
15.0959
-0.0307758
-11.7819
10.1343
10.3354
3.01835
-13.2416
-18.8421
4.94998
21.0272
-12.9987
-6.58277
16.4247
-10.0111
-0.637288
0.960948
-1.02021
0.696551
0.843597
-2.02544
0.544555
1.46936
-1.51084
0.885071
0.306388
2.12392
-1.41099
0.02994
0.360843
-1.8236
-1.61284
0.795534
0.621958
-1.38755
0.737661
2.27629
-2.21841
-1.62811
2.67216
-0.747148
-0.45901
-0.833764
2.03992
1.97644
-0.994695
-1.72889
0.954295
-0.463069
1.48521
0.974453
-1.33495
-1.15034
0.300636
0.84843
-3.17807
-1.43418
-10.3432
14.5693
-15.4267
11.2006
7.70331
-0.144114
-17.9024
0.987321
-3.20715
9.92314
-4.48172
20.0384
-24.6592
-1.03992
5.3064
20.3927
-13.5893
-1.50911
-9.56077
1.6126
-5.27642
-11.7628
-3.22824
-15.5882
14.3348
-18.4223
14.1541
-11.9768
-20.0349
18.0935
-11.148
-8.45465
20.1928
-9.96059
-4.01504
-8.29071
-0.782242
-2.07503
2.98605
-17.0213
5.74449
-18.9513
4.34945
7.29247
-11.6419
8.75111
-7.89971
3.49806
1.68755
-2.67802
8.28294
-1.17744
11.6161
1.85039
-13.4923
-7.07475
1.02543
1.18507
-17.8648
1.8354
14.8443
-15.5301
2.93714
13.778
-21.9419
19.5455
1.83845
0.55801
-2.20986
0.230862
-19.9629
-3.26503
4.94572
-19.1716
0.376439
-10.5364
12.2961
-0.746556
1.17311
-7.5013
1.51428
-15.7531
-14.3585
13.5159
14.113
-14.8086
1.59296
-1.14236
-17.7984
-10.5057
1.12717
7.2237
1.49008
-9.84095
2.41812
0.209218
-13.5142
10.8869
16.7077
9.35178
-18.9687
-7.09074
-9.47538
14.7139
11.4691
-6.86688
8.92288
-2.70791
0.651914
-9.08405
2.51362
-0.29646
15.1451
2.74565
-15.4727
-6.48574
12.5468
0.747959
-4.48805
-9.89241
10.3361
-2.87105
2.4274
2.43248
-12.1157
-3.26666
8.39345
4.22499
1.50948
-18.0457
-7.21794
8.19657
-9.79353
1.10186
-3.68391
12.3756
-7.99905
-24.4751
22.6806
2.32061
21.39
-13.3855
-10.3251
-12.1967
2.32511
3.79911
6.07244
-12.8434
-15.5732
16.22
-21.9383
1.09587
-6.94436
10.3332
16.0763
-19.4652
-3.4491
-2.3934
-7.34785
-8.82582
18.4943
-8.77379
-10.3161
11.7421
-7.21419
0.765509
0.631616
0.875797
-11.9605
2.276
-8.5291
-10.6456
-7.47271
6.28206
-7.68425
8.8749
-10.9426
6.48135
-3.01146
0.204321
-10.9749
12.417
-1.64643
-9.70353
-1.03474
-6.19322
-3.66178
16.1371
-6.26203
6.55016
0.246097
-16.1911
9.68298
-22.1852
8.6494
13.7819
-0.914787
6.96684
-15.7556
7.4573
-19.347
3.84882
-13.0731
-6.77962
-11.5568
-0.296791
5.02954
-10.5697
15.5573
17.4559
-16.7782
6.58941
47.9093
-29.2971
-1.74694
-16.8653
1.35223
21.6845
24.8726
-33.8216
-2.80936
24.0201
12.6108
-19.9896
-43.1291
-25.7429
12.926
14.1691
-17.3807
-10.1091
-27.1279
14.1692
10.1493
-12.2119
8.99136
-23.9073
0.569833
-32.7713
8.69076
37.0138
10.2201
-14.8193
17.5252
-32.8658
29.3037
17.7314
-5.60091
-18.2736
16.4098
9.92104
-25.761
25.9875
-7.07657
14.1717
-15.1426
-2.68909
2.04147
19.1845
-14.8643
2.04856
14.4468
-6.77299
3.11928
-14.9958
18.6495
16.02
-18.1982
-1.47404
4.83605
-6.98561
18.1696
-11.7128
-0.402469
-10.6546
22.7698
-1.81073
-16.6751
-2.72011
22.5548
-5.49597
0.840125
-13.5424
-10.3578
19.4549
-9.49956
3.11005
-15.2786
-19.6026
17.2167
2.71275
3.97987
15.7858
-22.4785
7.68271
24.957
-29.927
13.3735
-9.41412
10.3678
17.2453
3.54379
-1.33421
22.2079
7.86067
6.74739
-26.4043
11.2656
-16.5268
-6.11577
9.19076
8.40445
1.44328
18.7647
-8.9424
10.4417
9.7758
-13.4702
-6.45667
18.3417
8.70851
3.94047
11.666
7.03596
-9.99344
-0.898881
9.68841
1.94135
2.23239
-15.2183
11.0445
15.2913
-6.65243
6.9239
-15.5628
-4.50267
-0.988086
20.7821
-12.7881
3.50148
-2.09924
11.3859
4.11787
-14.9646
-4.41435
14.9299
-15.0182
-9.9279
-3.82783
12.7676
-16.6
0.019695
21.3673
-0.927866
-9.97862
-10.4608
2.14758
2.20307
17.0166
17.7037
-9.24301
-9.3886
4.48389
15.3674
12.9322
4.01456
-12.8289
-0.166309
-0.460736
-12.7081
17.1834
-4.20494
-12.2341
15.9783
19.3974
-11.7264
-17.6496
17.1861
13.8949
-13.2388
-13.6989
14.1762
10.0801
-19.8514
-4.40494
-7.24968
12.1692
9.25665
6.37949
-3.54906
-15.6826
4.0781
12.2964
-0.691966
-17.4611
-11.957
13.7356
2.25981
-14.5889
18.7085
-4.46153
-11.7233
18.4447
3.69814
12.5492
14.2972
-13.1534
-5.60535
19.8778
-9.93603
4.35542
4.42799
20.9936
-5.54374
22.9576
-14.8314
-10.0519
-2.23908
-4.37697
16.6679
-15.5586
14.9855
-9.47886
9.89564
-6.97454
-2.9211
3.47784
-0.766387
13.9007
-16.6121
0.094805
13.2787
9.24857
-4.72241
-6.76524
1.52823
6.64834
-2.37741
-5.79917
9.05707
-7.52884
2.08253
2.42238
-13.0403
9.85157
-6.77649
9.29367
-8.51418
-17.7843
19.522
-6.43165
-18.6256
-15.6121
16.4534
-15.5718
-9.48552
-5.40479
-3.3731
-6.83416
-14.3282
-7.16486
1.74192
11.7733
1.55929
-15.0745
-17.87
15.5562
4.05573
0.43705
-0.607426
-17.6996
-1.50131
-0.236672
17.2942
-1.50303
11.775
6.34406
-23.0481
18.7681
-2.06402
14.1041
-12.8066
5.04662
16.7489
-3.10321
-17.5577
3.91196
17.7044
-0.95545
-18.1414
-2.16411
20.0689
-0.921649
13.5227
5.93186
-1.57444
-27.4056
-9.39685
2.52208
20.0292
-1.60236
0.341233
1.24454
17.863
16.2501
-20.9277
-1.4141
16.7087
17.3847
-18.3043
-20.8557
-19.2342
27.8535
12.2365
-5.68822
-31.1211
15.9537
9.57096
-3.02134
-25.7838
6.12592
35.007
-13.2794
-29.8556
-10.4681
17.9098
22.4138
20.9024
-34.6167
5.50522
8.20901
-5.94042
32.9688
-30.7104
-5.09063
5.94547
-25.9004
0.854663
0.532997
-21.3615
-5.07184
35.6815
-28.984
-6.16446
25.0418
16.1449
-13.1438
32.2452
26.6903
-37.8739
-1.96009
5.41912
-23.0519
-3.72874
-24.937
1.37215
1.82347
-2.4221
-2.04618
2.64481
-0.772794
1.032
1.56426
-0.150579
0.0916456
-2.36317
2.90367
-0.0302369
-3.02401
1.50111
-1.34166
-0.357938
0.198484
-0.972685
1.86604
0.607751
1.15819
-0.583478
-0.788415
-1.51698
6.63428
0.548918
-21.0882
13.905
-5.61871
5.51503
6.73796
10.8855
-0.719682
4.17807
-14.3439
14.1686
6.95654
-20.5762
-12.6538
12.7488
17.1196
-17.2145
-1.52003
-11.1338
-12.0324
9.87646
13.0414
-13.5525
9.98213
3.46681
13.6753
-8.8617
2.14293
-4.54258
27.1678
19.1149
0.852458
-2.91388
-14.6094
16.6708
-1.98934
-12.8567
15.6985
2.61722
1.51955
-18.4788
14.3421
-15.3374
15.9653
-15.3931
13.9988
6.43145
-12.4757
-8.5652
-6.42526
-4.26412
-16.7002
5.62696
8.2248
-4.09343
2.3201
-6.45147
-18.8661
11.6978
-2.29093
-20.6686
-10.6894
-1.51189
-14.6468
-2.876
-15.3361
1.35623
-16.1228
-12.2091
13.1064
-13.6044
5.34939
-4.85142
-6.91775
7.18513
12.839
8.44865
-2.51074
-19.5423
1.53091
9.39252
4.16921
-8.21234
19.3745
-2.79686
-7.66327
9.19418
-11.5478
1.55074
11.9673
-1.97027
-5.38227
-13.8288
-17.2129
9.31993
10.2543
-14.5294
-14.7094
18.9845
-0.304116
10.5584
-0.597683
10.8245
1.55427
-11.7811
2.13787
-17.265
9.42556
9.32932
-7.93037
9.12144
-0.803872
11.6855
-9.32741
15.4318
-14.0978
0.338874
13.411
-14.1272
0.377306
4.26601
-6.96961
18.1354
-0.730312
-12.9986
12.8465
0.882377
8.39113
-3.6775
0.00824855
16.9278
-12.605
-0.0568023
-0.215715
17.7458
-0.602291
0.624174
8.10583
13.255
-4.59697
-18.9776
17.9299
-14.9045
15.9522
-11.8309
-2.94703
-4.19972
5.03021
-1.69249
14.5922
-26.7838
1.7967
10.0826
-22.8283
-15.7864
-11.8134
18.2882
-1.44457
18.5175
-14.74
-6.72456
12.1335
4.69154
-19.9368
9.92001
31.4564
-8.39535
-33.1961
10.1351
27.2682
-15.7486
19.2394
4.46454
-7.22497
-16.479
12.8124
5.25419
1.17283
2.03001
-33.2536
-13.764
14.0706
12.5057
-7.16193
-2.1375
16.0061
-21.2011
6.52033
12.3768
11.038
-11.8686
-11.5462
-6.02132
14.4823
3.91584
-21.4618
4.07787
14.5881
2.79587
-9.87418
-0.549605
18.7481
-12.6197
1.81275
-7.94117
23.735
-7.09086
2.10398
11.4884
0.151951
-23.509
8.30806
-2.84098
13.6789
4.88121
11.2592
-22.5715
11.4643
6.89664
-8.25718
-17.6292
-16.8389
21.1277
13.3404
1.44301
-10.7642
-8.49928
0.0656736
35.1539
-22.2476
-12.972
32.4904
-11.9268
-20.4979
5.22341
15.7242
14.2063
18.1257
19.5881
-21.5108
-6.38767
5.65096
11.1969
13.008
-8.48073
-11.0191
2.27261
12.73
-3.98348
-11.5203
-1.8803
2.38149
16.6723
-4.68823
-12.8885
0.90435
11.3732
-6.2212
-15.7537