/*--------------------------------*- C++ -*----------------------------------*\
  =========                 |
  \\      /  F ield         | OpenFOAM: The Open Source CFD Toolbox
   \\    /   O peration     | Website:  https://openfoam.org
    \\  /    A nd           | Version:  10
     \\/     M anipulation  |
\*---------------------------------------------------------------------------*/
FoamFile
{
    format      ascii;
    class       volVectorField;
    location    "18";
    object      U;
}
// * * * * * * * * * * * * * * * * * * * * * * * * * * * * * * * * * * * * * //

dimensions      [0 1 -1 0 0 0 0];

internalField   nonuniform List<vector> 
75457
(
(5.12072 0.529837 -0.801487)
(5.25922 -0.31482 -1.05849)
(7.21409 0.669508 -0.646423)
(9.33445 0.249356 -1.03009)
(3.99756 1.85849 -0.00395522)
(4.11434 2.0436 -0.19139)
(5.52358 0.232257 -0.574487)
(5.25927 1.21352 -1.03039)
(10.2566 -0.0453794 -1.22765)
(10.0695 0.185414 -1.03208)
(10.2659 0.364283 -0.986704)
(4.32179 1.37301 0.131149)
(4.38078 1.1451 -0.33071)
(8.98948 0.526327 -0.489144)
(12.0378 -0.33905 -0.0512647)
(12.1258 -0.340271 -0.0387132)
(12.4737 -0.415333 -0.219268)
(12.2518 -0.435626 -0.269257)
(12.2037 -0.377127 -0.0693389)
(12.4884 -0.358719 -0.150316)
(12.3036 -0.409894 -0.230672)
(12.3787 -0.406911 -0.0915927)
(12.0928 -0.367887 -0.0581923)
(12.0848 -0.376272 -0.0940701)
(12.3528 -0.431333 -0.0790336)
(11.8456 -0.413064 -0.237893)
(11.8033 -0.43884 -0.261495)
(11.3904 -0.802977 0.31037)
(11.2196 -0.829353 0.445972)
(11.3498 -0.800451 0.286147)
(11.5136 -0.732261 0.263103)
(11.1487 -0.805128 0.382517)
(11.1571 -0.791528 0.399713)
(11.7796 -0.596424 0.304255)
(11.7585 -0.580981 0.268858)
(11.9307 -0.586999 0.503869)
(11.8428 -0.637689 0.343868)
(11.1024 -0.828567 0.460072)
(11.2296 -0.804213 0.457859)
(11.8169 -0.538226 0.312816)
(11.8433 -0.540638 0.338197)
(11.8252 -0.571806 0.344161)
(11.8966 -0.645784 0.501836)
(12.7513 0.775356 0.607248)
(12.4989 0.805275 0.549471)
(12.9339 0.735527 0.577799)
(12.948 0.716836 0.603628)
(12.7184 0.781848 0.599371)
(12.4799 0.417916 0.129379)
(12.6929 0.58101 0.210635)
(12.6905 0.5908 0.190761)
(12.5428 0.437376 0.174543)
(12.2579 0.477962 0.0425133)
(12.6244 0.574621 0.188589)
(12.7505 0.531375 0.256861)
(12.7468 0.530895 0.225331)
(12.3355 0.583969 0.126798)
(12.3522 0.579509 0.107147)
(12.4352 0.411867 0.0846762)
(12.2152 0.45917 0.0303662)
(12.2946 0.530725 0.0853716)
(12.5147 0.431795 0.132346)
(9.93127 0.0568122 -0.294845)
(9.93901 0.0671044 -0.319247)
(10.1244 0.0903396 -0.250457)
(9.9239 0.0623694 -0.288918)
(9.94744 0.0569953 -0.27021)
(9.896 0.035946 -0.266526)
(9.91454 0.0422423 -0.205939)
(9.80693 0.0285458 -0.22824)
(9.82391 0.00937691 -0.225975)
(9.76886 0.00285094 -0.237942)
(9.94597 0.049647 -0.214197)
(10.1196 0.0916015 -0.250357)
(9.92659 0.0491664 -0.193196)
(10.0984 0.0820457 -0.219895)
(10.0883 0.0737008 -0.2083)
(0.839236 1.00746 0.578109)
(-0.941997 1.38344 -0.536925)
(-0.825039 1.21328 -0.457437)
(1.88264 1.2333 0.740875)
(-0.759051 1.69122 -0.144704)
(0.760767 0.789748 0.309679)
(-0.291367 0.735854 -0.0426196)
(-0.562828 1.35707 -0.308413)
(-0.824807 1.5248 -0.596347)
(-0.345967 1.20544 -0.630912)
(-0.0966697 1.04092 -0.712885)
(1.79632 0.898513 0.083131)
(2.17643 1.1789 0.453138)
(0.379265 0.700659 -0.0429965)
(-0.222807 0.691679 -0.252667)
(0.945917 1.31861 0.758745)
(-0.406469 1.03343 0.146236)
(12.5605 -0.277821 -0.0146399)
(12.9417 -0.283889 -0.0161202)
(12.9415 -0.287091 -0.0156068)
(12.9607 -0.287458 -0.0106655)
(12.3425 -0.275984 -0.0167641)
(12.5957 -0.274652 -0.0162384)
(12.5924 -0.286383 0.00756868)
(12.4534 -0.266433 -0.0150595)
(10.0176 -0.00988444 -0.0194677)
(10.028 -0.00913807 -0.0163031)
(10.0211 -0.0148775 -0.0219325)
(10.0213 -0.019416 -0.0153967)
(10.0125 -0.0174065 -0.00655705)
(10.0241 -0.0172821 -0.00565853)
(9.85569 0.000714758 -0.0203409)
(9.93383 -0.0143955 -0.0148685)
(9.94534 -0.0181565 -0.0109508)
(9.90249 -0.0188395 -0.00155858)
(9.87135 -0.0257959 -0.0229498)
(10.7576 0.115262 0.067079)
(10.794 0.138683 0.18733)
(10.3918 0.0975025 0.112838)
(10.3811 0.0320976 0.0382797)
(10.7722 0.0870593 0.204898)
(10.6456 0.151538 0.11613)
(10.5461 0.201891 -0.0212181)
(10.8597 0.106908 0.268225)
(10.8521 0.131612 0.277173)
(10.7488 0.129517 0.270894)
(10.5525 0.153726 0.127417)
(10.454 0.12633 0.0897448)
(10.4988 0.12349 0.141943)
(10.5518 0.166317 0.0562624)
(10.4971 0.0935316 0.15062)
(10.5364 0.0579647 0.0824429)
(10.6367 0.11736 0.228951)
(10.7311 0.115966 0.246238)
(11.3253 0.00560232 0.378702)
(11.3977 0.0791245 0.328887)
(11.4 0.0555521 0.360092)
(11.3273 0.0333034 0.32335)
(11.3237 0.0190162 0.31503)
(11.3134 0.0794172 0.332673)
(11.2446 0.0377725 0.311408)
(11.2509 0.0275691 0.358251)
(11.1999 -0.00796486 0.330137)
(11.9551 0.0351242 0.189752)
(11.9622 0.0208919 0.210628)
(11.8531 0.0140617 0.244716)
(11.9663 0.0302666 0.159219)
(11.9997 0.0187086 0.179693)
(11.697 0.0252423 0.122665)
(11.8703 0.0045866 0.25294)
(11.9042 -0.00592977 0.21654)
(12.853 0.0422374 0.00992746)
(12.9461 0.0581646 0.0433234)
(12.7139 0.0227753 -0.0541075)
(12.735 0.0925099 0.024596)
(13.1495 0.0491046 0.144065)
(13.0926 0.0924357 0.188672)
(12.9119 0.0560707 0.0853685)
(12.7439 0.0883502 0.0221569)
(12.7121 0.0755739 0.070137)
(12.6522 0.0743561 -0.000303274)
(13.0702 0.0843781 0.175625)
(12.7379 0.0916132 0.034182)
(12.7538 0.0364861 -0.00456654)
(13.0517 0.0838692 0.21723)
(12.6696 0.0815969 0.0685482)
(11.5387 1.08531 0.907919)
(11.2934 1.24357 0.897601)
(11.2046 1.30789 0.858428)
(11.3951 1.21772 0.810999)
(11.2607 1.11161 0.770771)
(11.7356 0.947857 0.875778)
(11.5745 0.758961 0.568617)
(11.4502 0.884249 0.696154)
(11.5784 1.2749 1.03729)
(11.4606 0.959942 0.673844)
(11.5653 1.07586 0.711753)
(11.8299 1.14714 0.914963)
(11.6568 0.935868 0.617269)
(12.9912 -0.0708895 -0.0701618)
(13.1147 -0.0309431 -0.0864681)
(13.0095 -0.00684097 -0.0372673)
(12.8307 -0.0354625 -0.0117026)
(12.8593 -0.0145231 0.000604479)
(12.723 -0.021408 -0.0401146)
(12.9609 -0.071403 -0.0369148)
(12.9014 -0.0821799 -0.0133297)
(12.761 -0.0896649 -0.00029967)
(13.1075 -0.0365193 -0.099811)
(12.8492 -0.0385612 -0.0298754)
(12.9924 -0.0639772 -0.0560373)
(12.7471 -0.0346094 -0.0150234)
(12.7029 -0.027333 0.00107263)
(9.95723 -0.094037 -0.749561)
(9.38791 -0.266077 -0.916115)
(9.2243 -0.0875109 -1.01491)
(8.53438 -0.14007 -0.826969)
(7.953 -0.235387 -0.909319)
(8.36977 -0.109641 -0.891713)
(11.677 0.433721 -0.652431)
(11.5221 0.279568 -0.493699)
(11.6012 0.258524 -0.469094)
(11.6983 0.324248 -0.501156)
(11.8131 0.346789 -0.509963)
(11.4531 0.23337 -0.21604)
(11.2991 0.361706 -0.145432)
(11.3492 0.355203 -0.117024)
(11.4806 0.39696 -0.246195)
(11.7313 0.403037 -0.257564)
(11.5745 0.328036 -0.0657559)
(11.9025 -0.00234379 -0.0980975)
(11.952 -0.0163381 -0.0405807)
(11.9968 -0.0241006 -0.0365836)
(12.2163 -0.0486372 -0.062469)
(12.1364 -0.000185928 -0.115637)
(11.8105 -0.0130457 -0.0582955)
(11.8165 0.0453965 -0.0838786)
(12.1259 0.000726765 -0.129964)
(12.0145 -0.00359722 -0.0819322)
(11.8898 -0.032982 -0.0245854)
(12.1193 0.00347398 -0.127069)
(11.7808 0.0148281 -0.0914311)
(11.7437 0.00370612 -0.0162647)
(11.7597 -0.00221333 -0.042374)
(11.7816 0.449506 -0.0286432)
(11.8523 0.467991 0.0123741)
(11.6849 0.447075 -0.0235666)
(12.0272 0.419949 -0.000423913)
(11.8865 0.407627 0.0409472)
(11.7865 0.496583 -0.0308066)
(11.8624 0.499037 -0.00761539)
(11.8217 0.535618 -0.0527349)
(11.7236 0.52535 -0.0251487)
(12.1195 0.487454 -0.0771163)
(12.1566 0.465726 -0.0668808)
(11.9043 0.498639 -0.0174551)
(11.8795 0.500126 -0.0365504)
(11.9426 0.495852 -0.00261492)
(12.2438 0.00325287 -0.270918)
(12.0257 -0.00137288 -0.296265)
(12.4246 -0.0546536 -0.273178)
(12.3745 -0.0384665 -0.21731)
(12.3907 -0.0531143 -0.216511)
(12.4472 -0.0586182 -0.284417)
(12.1639 -0.00721302 -0.221627)
(12.0278 0.022514 -0.260102)
(12.0293 -0.00499572 -0.278385)
(11.9865 -0.0100221 -0.267654)
(12.1504 -0.025503 -0.291349)
(12.1351 -0.015131 -0.206682)
(12.1424 -0.00932104 -0.19521)
(12.0004 0.000360233 -0.283705)
(11.9529 -0.00716545 -0.267267)
(12.0723 -0.00320881 -0.203878)
(12.0319 0.0175947 -0.26043)
(10.5703 -0.0690837 0.176569)
(10.3242 0.023909 0.0892938)
(10.4271 0.0326084 0.0939623)
(10.4072 0.0485435 0.10425)
(10.6622 -0.114819 0.167346)
(10.8144 -0.143239 0.146869)
(10.7415 -0.21924 0.304128)
(11.8808 -0.168772 0.317347)
(11.9475 -0.256051 0.312366)
(11.8953 -0.22549 0.313346)
(10.6371 -0.0681517 0.20003)
(10.6562 -0.165077 0.212129)
(12.1475 0.318183 -0.226023)
(11.4694 0.208164 0.000861224)
(11.6913 0.149656 -0.356443)
(11.5566 -0.00373717 -0.205087)
(11.5341 0.187766 0.00933584)
(11.733 -0.0242273 -0.21846)
(11.6556 0.00782706 -0.218148)
(11.6582 0.183171 -0.0373391)
(11.8885 0.27642 -0.493344)
(11.7693 0.262791 -0.458974)
(12.0795 0.335585 -0.249866)
(11.786 0.265951 -0.438678)
(12.0803 0.317484 -0.23022)
(12.3467 0.0483921 0.14265)
(12.276 0.013382 0.155987)
(12.4737 0.0728427 0.172274)
(12.398 0.00574307 0.197651)
(12.3693 -0.00757999 0.202971)
(12.2925 0.0414344 0.127731)
(12.2993 0.00901265 0.145383)
(12.3755 0.0299137 0.16744)
(12.3495 0.0107126 0.177717)
(12.3765 0.0681684 0.136363)
(12.7298 0.145773 0.174891)
(12.6605 0.125548 0.167863)
(12.3874 0.0557744 0.137433)
(12.5973 0.119154 0.139907)
(12.5745 0.114191 0.135239)
(8.84467 0.234715 0.00144879)
(8.80027 0.188118 0.026167)
(8.4858 0.0184676 -0.0697957)
(8.52207 0.0111034 -0.0648569)
(8.70063 0.185928 -0.0376151)
(8.87075 0.187653 -0.0132754)
(8.88535 0.220987 -0.0218728)
(8.66516 0.0656835 -0.0206549)
(8.73514 0.0996386 -0.00502748)
(2.51987 -0.0465658 -0.442757)
(2.41962 -0.0141747 -0.400613)
(2.62979 -0.123535 -0.507302)
(2.71142 -0.127338 -0.519051)
(2.3826 -0.092003 -0.446153)
(2.25612 -0.0318874 -0.421905)
(2.31298 -0.0959013 -0.50216)
(2.38897 -0.16871 -0.518356)
(2.34956 -0.0595682 -0.419008)
(2.47738 -0.130189 -0.517908)
(2.61132 -0.159713 -0.531422)
(2.62925 -0.123355 -0.474518)
(2.72774 -0.16899 -0.509949)
(1.14001 0.11586 -0.015521)
(-0.476225 -0.0883291 0.0446413)
(-0.555152 -0.155143 -0.690944)
(-0.141328 -0.074633 -0.597483)
(-0.172341 -0.0860935 -0.56396)
(-0.0713061 -0.131397 -0.0289315)
(-0.125717 -0.283444 -0.150783)
(-0.953663 -0.0444946 -0.645265)
(-1.12834 0.0258346 -0.396767)
(-1.31612 -0.0142723 -0.279806)
(-1.1311 0.00615591 -0.383372)
(12.6109 0.178512 0.153165)
(12.7146 0.225602 0.165088)
(12.719 0.235324 0.153911)
(12.4399 0.282095 0.0698563)
(12.3722 0.272106 0.0541283)
(12.4355 0.197999 0.0865474)
(12.4454 0.249165 0.0756429)
(12.3685 0.25127 0.0579418)
(12.2974 0.242844 0.0577407)
(12.5858 0.159065 0.143122)
(12.6244 0.180764 0.128644)
(12.1609 0.113381 0.0462386)
(12.149 0.108541 0.0734867)
(12.1908 0.179862 0.0187619)
(12.3315 0.184597 0.0847636)
(12.1218 0.106276 0.0566111)
(12.1058 0.106324 0.0334433)
(-1.29277 -0.108473 -0.730857)
(-0.985559 -0.636773 -0.382322)
(-1.14471 -0.258256 -0.550287)
(-1.04456 -1.17359 -0.0998919)
(-2.34976 -0.0103664 0.0142817)
(-1.97237 -0.115668 -0.00235315)
(-2.28666 0.135035 -0.293717)
(-0.881182 -0.869685 0.144022)
(-1.50697 -0.280001 -0.223136)
(-1.39505 -0.713151 -0.083095)
(-1.52645 -0.657364 0.0128504)
(10.6673 0.424729 0.0129757)
(10.8304 0.433149 -0.00883597)
(10.6001 0.285316 -0.0147396)
(10.1162 0.0885955 -0.0320749)
(10.4241 0.31378 -0.01262)
(9.62997 0.177038 -0.146115)
(9.60484 0.158393 -0.136186)
(10.0439 0.0813696 -0.0272673)
(10.4788 0.250148 0.0483643)
(9.88968 0.00832151 -0.0131536)
(10.4507 0.254186 0.0391045)
(11.8443 0.356481 0.189794)
(11.86 0.34387 0.152401)
(11.8441 0.376433 0.195952)
(11.8721 0.341307 0.14374)
(11.6769 0.331071 0.090119)
(11.7191 0.352265 0.135594)
(11.4542 0.433016 0.0608923)
(11.5296 0.430431 0.093013)
(11.6839 0.417539 0.134284)
(11.5776 0.412506 0.0898547)
(11.3948 0.402122 0.0036675)
(11.4458 0.415459 0.0298092)
(11.574 0.32422 0.063201)
(11.6413 0.344338 0.0833824)
(11.531 0.358003 0.058076)
(2.88977 -0.0679569 -0.295639)
(1.61722 -0.0780584 -0.564859)
(1.4286 -0.0224997 -0.909417)
(0.711031 -0.0364338 -0.975174)
(0.738283 0.028052 -0.892827)
(12.3711 -0.0353187 0.659557)
(12.4642 -0.0558512 0.654598)
(12.6008 -0.0697622 0.706018)
(12.531 -0.0627287 0.702379)
(12.8458 -0.106877 0.702257)
(12.8249 -0.117193 0.717089)
(12.6411 -0.0702743 0.683699)
(7.92295 2.54998 0.0346774)
(7.4775 2.71734 -0.48087)
(8.85625 2.32009 -0.239809)
(8.71116 2.5958 -0.39604)
(7.96048 3.00959 -0.0365361)
(7.42748 3.04788 -0.572346)
(8.06591 2.28809 0.0555064)
(7.5568 2.39488 -0.569537)
(8.18258 3.06501 -1.22589)
(7.32756 3.11242 -1.29146)
(8.26645 2.17458 -0.0454084)
(7.94109 2.18237 -0.636441)
(8.26565 2.73493 -1.13784)
(7.73362 2.69405 -0.962728)
(8.93182 2.23054 -0.245622)
(8.43128 2.48757 -1.07349)
(7.87397 2.44504 -0.902574)
(8.94546 2.28158 -0.445556)
(9.61647 2.10754 -0.289091)
(9.77128 1.94727 -0.36525)
(9.5799 1.99744 -0.590201)
(9.50705 2.09041 -0.679873)
(9.52022 1.80682 -0.583131)
(9.44084 2.1179 -0.672446)
(9.56484 1.94408 -0.162295)
(9.49577 2.11749 -0.212216)
(9.41703 2.23627 -0.546819)
(8.99015 2.05873 -0.491092)
(9.30332 1.73691 -0.411371)
(9.28761 1.90906 -0.206343)
(9.00477 2.25019 -0.161705)
(10.1956 3.23648 -0.915745)
(10.5469 2.79945 -0.846907)
(10.9709 2.12695 -0.315755)
(10.8853 2.02079 -0.319573)
(10.3409 2.51468 -0.827604)
(10.5657 2.5069 -0.745386)
(10.7014 2.23744 -0.467009)
(10.6784 2.16161 -0.474668)
(10.4496 3.23317 -0.76263)
(10.7821 2.96157 -0.623208)
(9.95167 2.86763 -0.8511)
(10.0269 2.9627 -0.833901)
(10.7446 2.65419 -0.246043)
(10.6571 2.45355 -0.223737)
(10.9632 2.38626 -0.304921)
(10.4006 2.19776 -0.546077)
(10.0885 2.65989 -0.494442)
(10.1594 2.78916 -0.523441)
(10.4674 2.75244 -0.277287)
(10.4569 2.61191 -0.30424)
(10.3885 2.88529 -0.443834)
(10.3075 2.54577 -0.372983)
(13.1904 -0.066753 0.383206)
(12.9764 -0.0836549 0.35767)
(13.0515 -0.125364 0.373904)
(12.9758 -0.0801583 0.365239)
(13.0579 -0.123726 0.379713)
(13.2328 -0.0553219 0.396784)
(13.0969 -0.0540456 0.386239)
(13.2709 -0.096464 0.372915)
(13.0569 -0.0788151 0.360855)
(13.1984 -0.054584 0.38669)
(13.1959 -0.135047 0.372688)
(13.0951 -0.0662788 0.377536)
(13.2605 -0.115335 0.370054)
(13.1147 -0.071487 0.370603)
(13.2758 -0.124445 0.369504)
(13.2371 -0.072537 0.381615)
(4.40718 0.183473 -0.411235)
(-1.54338 -0.0461084 -0.402093)
(2.44793 2.21642 0.419991)
(2.7215 2.60794 0.367154)
(9.91451 1.06793 -1.76832)
(10.0748 1.18366 -2.06157)
(4.08759 2.32176 -0.548912)
(4.26273 2.07317 -0.295497)
(10.6126 0.69942 -1.61031)
(10.7419 0.693971 -1.78822)
(0.516433 0.532677 0.684191)
(5.96297 0.17807 -0.793335)
(4.25724 0.910653 -0.148601)
(4.96359 2.02639 -0.312509)
(9.87045 1.22149 -1.58063)
(10.7322 1.10115 -1.43238)
(12.5971 0.11404 0.31151)
(12.6508 0.160156 0.30043)
(12.5367 0.114768 0.247847)
(12.4927 0.116319 0.209203)
(12.4574 0.124548 0.220082)
(12.4703 0.115152 0.269802)
(12.5925 0.122252 0.263125)
(12.6582 0.133114 0.300984)
(12.5823 0.163613 0.309652)
(12.5394 0.102383 0.313911)
(12.3991 0.132748 0.210537)
(12.3792 0.098787 0.159567)
(12.4348 0.120254 0.229419)
(12.4654 0.118119 0.271263)
(12.3932 0.0994426 0.151876)
(12.4617 0.105591 0.165151)
(12.5575 0.107251 0.199133)
(12.5032 0.117575 0.212958)
(9.72478 1.76374 -0.101137)
(9.42031 1.68662 0.648383)
(9.33132 2.05949 0.815767)
(9.70032 1.92851 0.15738)
(9.59484 2.0799 0.0322872)
(9.21161 2.53633 0.280241)
(8.69768 2.7263 0.248107)
(9.34985 1.73308 -0.0955566)
(9.53411 2.08624 0.578067)
(9.00354 1.93925 0.620235)
(8.85446 2.20959 0.659221)
(8.79185 2.68643 0.370154)
(9.29411 2.42412 0.529965)
(9.71969 1.79401 0.354919)
(9.66432 1.6228 0.347584)
(9.61462 1.66139 -0.0432863)
(10.5698 0.66437 -0.248333)
(10.6444 0.665575 -0.199318)
(10.6028 0.60899 -0.237917)
(10.6057 0.778258 -0.271835)
(10.7169 0.84404 -0.176039)
(10.5463 0.556394 -0.257636)
(10.4806 0.640448 -0.327319)
(10.5188 0.730673 -0.354145)
(10.5795 0.747224 -0.34459)
(10.5163 0.733579 -0.390132)
(10.5714 0.743396 -0.330206)
(10.6449 0.748735 -0.367877)
(10.592 0.738397 -0.41217)
(10.6973 0.767005 -0.314538)
(10.637 0.73685 -0.30765)
(10.487 0.603781 -0.294571)
(10.4535 0.633745 -0.352799)
(11.7092 -0.0528932 0.791245)
(11.7159 -0.0266098 0.762398)
(11.8325 0.122421 0.658241)
(11.8346 0.155725 0.673401)
(11.827 0.163133 0.677764)
(11.8262 0.118658 0.654708)
(11.7279 -0.0179097 0.858133)
(11.7042 -0.0086528 0.885874)
(11.8284 0.288159 0.804574)
(11.8205 0.379452 0.956921)
(11.6959 -0.013875 0.716631)
(11.8372 0.12201 0.662628)
(11.8414 0.287584 0.810579)
(11.8417 0.323853 0.893178)
(11.7033 0.00556983 0.684986)
(11.8795 0.286157 0.876394)
(11.7721 0.00238172 0.821357)
(10.2137 -1.45498 0.452442)
(10.5508 -1.41856 0.46595)
(10.6624 -1.38968 0.587981)
(10.0242 -1.48452 0.52901)
(10.5797 -1.37169 0.340613)
(9.9472 -1.51653 0.436778)
(10.0259 -1.40873 0.0529545)
(9.79102 -1.53174 0.0616107)
(10.606 -1.32896 0.392384)
(10.7102 -1.37536 0.487594)
(10.7014 -1.37061 0.601045)
(10.0622 -1.56097 0.486097)
(9.54325 -1.5905 -0.0283945)
(9.87287 -1.45117 0.0218811)
(9.77561 -1.62756 -0.0582098)
(10.1833 -1.32444 0.111231)
(9.52999 -1.6992 0.00147498)
(9.5621 -1.69698 -0.0262705)
(12.3453 -0.555099 0.382736)
(12.5396 -0.471104 0.430302)
(12.5379 -0.43521 0.410188)
(12.5296 -0.397599 0.265188)
(12.3092 -0.475863 0.240844)
(12.5749 -0.349461 0.366383)
(12.3324 -0.554453 0.383607)
(12.4816 -0.468181 0.405965)
(12.4713 -0.4529 0.387096)
(12.5606 -0.338244 0.361706)
(12.4626 -0.414583 0.255769)
(12.4124 -0.471859 0.344363)
(12.4918 -0.380936 0.299279)
(12.2766 -0.568367 0.307519)
(11.9254 -0.825579 0.590245)
(11.9961 -0.768684 0.610639)
(11.9052 -0.721211 0.925636)
(12.2681 -0.570085 0.934305)
(11.9135 -0.715221 0.950226)
(11.8844 -0.76036 0.933316)
(11.7169 -0.880598 0.698784)
(12.0055 -0.767088 0.584138)
(12.0996 -0.698721 0.634589)
(11.8192 -0.874956 0.851031)
(11.8343 -0.844747 0.835245)
(11.755 -0.868139 0.727613)
(12.0056 -0.773967 0.623344)
(12.3146 -0.585971 0.717378)
(12.307 -0.596373 0.70011)
(11.818 -0.828788 0.681561)
(12.2716 -0.624077 0.767537)
(11.9549 -0.770795 0.787679)
(10.6117 3.35414 -0.768892)
(10.9852 3.27874 -0.673847)
(10.9795 3.03157 -0.626548)
(10.4117 3.2851 -0.541349)
(10.7227 3.48601 -0.546882)
(11.3318 2.98694 -0.333715)
(11.1824 2.62376 -0.301656)
(11.0272 3.41113 0.00167194)
(11.2387 3.23336 0.0378296)
(10.5788 3.34463 -0.154875)
(11.0898 2.55344 -0.245948)
(11.0803 3.5784 -0.177888)
(11.5674 -0.0843041 1.07096)
(12.1995 -0.051591 1.06941)
(11.3132 -0.273089 1.02381)
(12.1619 -0.034503 1.05675)
(11.4205 -0.0277716 1.09449)
(11.8052 -0.231063 0.934256)
(11.3795 -0.179926 1.02244)
(11.4311 -0.235516 0.974225)
(11.6652 -0.26253 0.970314)
(12.4556 -0.0307113 0.913669)
(12.5871 -0.0441999 0.833548)
(12.427 -0.0631514 0.879694)
(12.1961 -0.16131 0.814715)
(12.3224 -0.169045 0.791907)
(12.5617 -0.0547993 0.830069)
(12.3097 -0.155777 0.786742)
(12.5564 0.00358968 1.10834)
(12.3161 0.120465 1.06117)
(12.4812 0.0380313 1.0817)
(12.3188 0.123321 1.02452)
(11.936 0.108109 1.17711)
(11.8097 -0.0731332 1.24728)
(11.4478 -0.16531 1.23389)
(11.9377 0.112135 1.26128)
(11.9611 0.107284 1.15695)
(12.2942 0.133145 1.04539)
(12.4194 0.0588675 1.07393)
(12.3555 -0.098778 1.14935)
(11.4914 -0.189879 1.19613)
(12.2959 -0.0761519 1.10769)
(12.1467 -0.212149 1.13643)
(12.1371 -0.182817 1.15529)
(12.4456 0.4685 0.589492)
(12.5114 0.483443 0.61153)
(12.5624 0.414592 0.563004)
(12.3764 0.524501 0.440531)
(12.1796 0.701412 0.562212)
(12.3986 0.288748 0.529036)
(12.3263 0.299442 0.519481)
(12.5852 0.572579 0.554376)
(12.4723 0.646997 0.622435)
(12.4157 0.630326 0.460574)
(12.2652 0.71459 0.560039)
(12.3884 0.588613 0.626657)
(12.3271 0.548547 0.598245)
(12.2076 0.511721 0.623244)
(12.2941 0.430777 0.521333)
(12.4732 0.302785 0.533042)
(12.4348 0.36022 0.499195)
(12.3566 0.355897 0.519229)
(12.4765 0.523165 0.501735)
(11.1895 -0.279557 -0.568779)
(11.1494 -0.287521 -0.545375)
(11.5485 -0.293524 -0.484924)
(10.7808 -0.308809 -0.576146)
(11.2422 -0.267355 -0.570387)
(10.878 -0.326482 -0.547481)
(11.1375 -0.349146 -0.577503)
(11.656 -0.277227 -0.534003)
(11.1326 -0.341645 -0.478227)
(11.894 -0.311613 -0.417972)
(10.884 -0.355178 -0.54567)
(11.2645 -0.394991 -0.503921)
(11.3443 -0.395776 -0.413487)
(11.3202 -0.415287 -0.441284)
(9.20775 -0.364387 -0.443323)
(9.13698 -0.351986 -0.433519)
(9.86228 -0.408284 -0.293139)
(9.45715 -0.384938 -0.388082)
(9.5176 -0.385207 -0.356443)
(9.63913 -0.341449 -0.38677)
(10.3269 -0.341629 -0.207021)
(10.015 -0.378755 -0.401953)
(9.83634 -0.368644 -0.420797)
(10.7442 -0.339218 -0.218346)
(10.5914 -0.326803 -0.230647)
(9.42241 -0.372795 -0.460225)
(10.4789 -0.330001 -0.22365)
(10.2361 -0.335516 -0.330453)
(10.2263 -0.328232 -0.318277)
(10.725 -0.337472 -0.223829)
(10.6329 -0.325076 -0.23508)
(10.3182 -0.281392 -0.290457)
(11.7773 1.25754 -0.118285)
(11.4 1.35976 -0.53343)
(11.0918 1.49055 -0.791697)
(12.4091 0.589509 -0.205078)
(12.3221 0.809706 -0.177475)
(11.7955 1.07755 -0.441978)
(11.9904 1.00287 -0.130634)
(12.525 0.544049 -0.196351)
(12.3585 0.816251 -0.146637)
(11.4203 1.06114 -0.750822)
(11.9362 0.794088 -0.553499)
(4.98024 -1.04262 -0.760279)
(5.11676 -1.12522 -0.733647)
(4.97557 -0.891933 -0.77196)
(4.78441 -0.772427 -0.833037)
(3.80739 -0.150309 -1.01404)
(3.4397 0.0905752 -0.860911)
(3.30872 0.250338 -1.05614)
(3.11952 0.290541 -0.930981)
(5.45338 -1.15246 -0.899065)
(5.75122 -1.22059 -0.910336)
(4.93849 -0.931572 -0.76232)
(4.30343 -0.330391 -0.929229)
(4.23807 -0.164084 -0.982728)
(3.98217 -0.274337 -0.80704)
(3.81665 -0.00528821 -0.946239)
(3.87486 -0.135638 -0.887586)
(3.31803 0.206532 -1.03126)
(5.61998 -1.11661 -0.870437)
(5.33608 -0.820138 -0.978085)
(5.64664 -1.04726 -0.895722)
(5.03528 -0.775589 -1.04485)
(13.3862 -0.144724 0.473085)
(13.3954 -0.153718 0.441789)
(13.3889 -0.0839441 0.488238)
(13.4161 -0.116231 0.453211)
(13.3904 -0.0942704 0.496686)
(13.3801 -0.152743 0.464239)
(13.3787 -0.14818 0.478399)
(13.3767 -0.0825869 0.455446)
(13.3427 -0.0675288 0.481942)
(13.2641 -0.0750487 0.509743)
(13.2753 -0.0957669 0.484429)
(13.2218 -0.0768275 0.512117)
(13.3784 -0.0902041 0.449965)
(13.2637 -0.0678335 0.505995)
(13.1848 -0.0646037 0.4858)
(13.2869 -0.0795515 0.462706)
(13.1878 -0.0533878 0.485311)
(12.1416 0.413898 1.08098)
(11.9874 0.413409 1.09465)
(11.6841 0.315752 1.23143)
(11.0099 0.333498 1.21665)
(12.1069 0.402006 1.13733)
(11.9881 0.379941 1.18689)
(10.9857 0.750258 0.746338)
(10.9808 0.605695 0.899596)
(11.7971 0.319732 1.2313)
(11.0055 0.353774 1.18921)
(11.1523 0.567861 1.21548)
(7.76236 0.162571 0.477036)
(7.83607 0.29228 0.373109)
(7.56462 0.325681 0.404706)
(6.06922 0.0992413 0.262623)
(7.20298 0.104475 0.494649)
(5.3007 0.0823165 0.26872)
(4.81194 0.0494907 0.239095)
(5.88015 0.0924544 0.516032)
(7.25915 0.198117 0.563823)
(7.4442 0.192266 0.453426)
(5.71925 0.141702 0.419714)
(6.0836 0.160992 0.387259)
(5.96063 0.180918 0.524851)
(12.4517 -0.312006 -0.239324)
(12.418 -0.29017 -0.231478)
(12.5352 -0.317056 -0.146297)
(12.5569 -0.319631 -0.14879)
(12.3639 -0.365069 -0.21849)
(12.3799 -0.3522 -0.20847)
(12.3295 -0.33406 -0.281347)
(12.312 -0.330505 -0.28518)
(12.5024 -0.288457 -0.160678)
(12.5698 -0.307971 -0.172831)
(12.3711 -0.286957 -0.244148)
(12.3884 -0.27582 -0.231548)
(12.6063 -0.312311 -0.140467)
(12.3366 -0.344392 -0.248121)
(12.563 -0.297774 -0.125434)
(12.5335 -0.292554 -0.141608)
(12.3791 -0.287425 -0.222365)
(12.4168 -0.28351 -0.200655)
(12.5245 -0.29112 -0.137854)
(12.5269 -0.295763 -0.134464)
(12.4832 -0.298336 -0.166865)
(12.4068 -0.312563 -0.208689)
(11.9678 -0.489285 -0.449774)
(12.4886 -0.421629 -0.379264)
(11.7198 -0.381916 -0.538705)
(12.5321 -0.323323 -0.419802)
(12.5696 -0.425289 -0.372219)
(11.5014 -0.481523 -0.401147)
(11.654 -0.330688 -0.547306)
(12.5498 -0.311378 -0.413861)
(12.0973 -0.328805 -0.502522)
(11.4795 -0.471299 -0.372945)
(12.0476 -0.416668 -0.318171)
(12.096 -0.447705 -0.365554)
(11.2855 -0.388178 -0.577007)
(12.5061 -0.3181 -0.419525)
(12.0828 -0.315048 -0.502325)
(11.1489 -0.400995 -0.607144)
(11.6761 -0.340465 -0.603695)
(12.2782 -0.383357 -0.404519)
(12.5539 -0.400058 -0.378409)
(12.5235 -0.38532 -0.398053)
(12.7891 0.694091 0.30389)
(12.5868 0.754832 0.31327)
(12.4556 0.770658 0.418236)
(12.5124 0.726921 0.506137)
(12.7671 0.685688 0.287389)
(12.6228 0.729251 0.309257)
(12.4613 0.733229 0.517595)
(12.3635 0.76915 0.44639)
(12.8199 0.662213 0.413933)
(12.8081 0.62231 0.484574)
(12.8527 0.625826 0.445362)
(12.7757 0.670061 0.322848)
(12.7419 0.666508 0.317654)
(12.6107 0.726969 0.318743)
(12.8639 0.626153 0.44899)
(12.816 0.623655 0.505218)
(12.7691 0.625085 0.429856)
(12.5858 0.71768 0.314875)
(12.3498 0.740345 0.448706)
(12.4257 0.730089 0.543998)
(12.4306 0.709484 0.448679)
(12.3688 0.728046 0.503229)
(11.1924 0.324173 0.91036)
(11.2345 0.417231 0.917433)
(12.4398 0.379129 0.93154)
(12.3455 0.418157 0.905304)
(12.2421 0.36202 0.99245)
(12.0846 0.438786 1.00239)
(12.2882 0.357059 0.943412)
(12.2315 0.341845 0.986389)
(11.9834 0.310559 0.95257)
(11.329 0.322489 0.901181)
(11.2029 0.264001 0.875511)
(11.3304 0.313409 0.871112)
(12.1382 0.48478 0.918927)
(12.248 0.450355 0.849313)
(12.3767 0.397552 0.884422)
(11.4788 0.342209 0.895718)
(11.7427 0.419784 0.839525)
(12.5229 0.576886 0.896426)
(12.5303 0.65496 0.871917)
(12.7934 0.377156 0.827947)
(12.7561 0.480671 0.787771)
(12.8141 0.414536 0.800614)
(12.9348 0.383602 0.79802)
(12.9772 0.35994 0.763983)
(12.8496 0.572751 0.71636)
(12.8132 0.560969 0.728706)
(12.7558 0.659849 0.716141)
(12.8269 0.64079 0.715368)
(12.9621 0.42927 0.756901)
(12.8113 0.681574 0.71965)
(12.7384 0.681276 0.71814)
(10.9403 0.826907 -0.396069)
(10.8927 0.755581 -0.246579)
(10.8372 0.705474 -0.244575)
(10.8736 0.767724 -0.428569)
(10.8066 0.760119 -0.433326)
(10.9379 0.615482 -0.292147)
(10.879 0.553409 -0.263832)
(10.9719 0.679542 -0.305416)
(10.9241 0.616572 -0.310093)
(10.8523 0.565319 -0.280247)
(13.1711 -0.1597 0.6454)
(13.1689 -0.179081 0.641779)
(13.1149 -0.127189 0.686789)
(13.1133 -0.130436 0.654492)
(13.1351 -0.213297 0.66267)
(13.1064 -0.218841 0.672381)
(13.1413 -0.142795 0.662064)
(13.1202 -0.114124 0.673494)
(13.1225 -0.20989 0.675106)
(13.1089 -0.104395 0.695189)
(13.1122 -0.131288 0.715469)
(13.106 -0.109801 0.721322)
(13.1102 -0.0908199 0.699809)
(13.0826 -0.172402 0.711003)
(13.1199 -0.0889715 0.701747)
(13.1081 -0.104173 0.71879)
(13.0701 -0.167454 0.70987)
(8.49934 0.0189371 0.158901)
(8.41136 0.00566701 0.201128)
(8.25975 0.0729285 0.226151)
(7.66431 -0.13793 0.0210875)
(7.64773 -0.0949288 -0.0500085)
(8.15834 0.0818166 0.127762)
(8.37643 -0.375605 -0.359506)
(8.40197 -0.319609 -0.33121)
(8.22367 -0.280325 -0.27907)
(8.04893 -0.279542 -0.248556)
(8.33415 0.0938685 0.254117)
(8.41289 0.0632976 0.183444)
(8.48788 -0.114059 0.0949035)
(8.50846 -0.0360031 0.104192)
(8.00473 -0.239344 -0.227837)
(8.01163 -0.165642 -0.202958)
(7.69759 -0.0798499 -0.0860288)
(8.29928 0.0641057 0.114606)
(8.45706 -0.139807 0.0582492)
(8.3063 -0.0439622 0.0129741)
(11.8277 -0.0117891 0.538272)
(11.6816 -0.0748924 0.529279)
(11.6758 -0.0137625 0.510938)
(11.79 0.012553 0.53198)
(11.6647 -0.118298 0.548422)
(11.3825 -0.0923864 0.53816)
(11.5977 -0.184916 0.526041)
(11.8428 -0.0282837 0.484849)
(11.8349 -0.00630637 0.516046)
(11.7806 -0.0680902 0.512954)
(11.4104 -0.207218 0.467868)
(11.3531 -0.121306 0.53679)
(11.8053 0.0180688 0.518401)
(11.5631 -0.0884467 0.512697)
(11.5703 -0.12536 0.49334)
(11.3161 -0.175931 0.493503)
(2.83226 -0.0656589 0.695988)
(2.87294 -0.275644 0.86832)
(1.83164 -0.242654 1.11532)
(1.82389 0.00977509 1.04653)
(5.74772 -0.562989 0.564761)
(4.18811 -0.433152 0.561152)
(7.43913 -0.177633 0.654148)
(5.41478 0.192917 0.723741)
(3.12282 0.423761 1.2155)
(4.45132 -0.0683777 0.981224)
(7.35895 -0.191244 0.555087)
(5.5847 -0.144065 0.727925)
(4.6041 0.329143 0.678902)
(12.4571 -0.00344008 1.13548)
(12.4129 0.0900094 1.20863)
(12.5185 -0.0307044 1.10436)
(12.64 -0.0512373 1.00612)
(12.8129 -0.056157 0.944052)
(12.7176 -0.0314476 1.04088)
(12.3974 0.107398 1.22367)
(12.554 0.212728 1.066)
(12.6871 0.0561878 1.00952)
(12.6227 -0.0280807 0.982198)
(12.9005 0.0132777 0.904674)
(12.5801 0.272137 1.02724)
(11.7902 0.392698 -0.109162)
(11.7429 0.293224 -0.140665)
(11.7934 0.257603 -0.153898)
(11.8848 0.392286 -0.087493)
(11.8238 0.335788 -0.0910964)
(11.8625 0.310064 -0.110443)
(12.0172 0.373917 -0.111751)
(12.1102 0.383514 -0.129159)
(12.0126 0.2837 -0.13041)
(11.9672 0.271036 -0.128939)
(12.0302 0.604223 -0.212769)
(12.1164 0.598533 -0.21276)
(11.9503 0.550335 -0.238461)
(12.013 0.542752 -0.221473)
(11.8569 0.539576 -0.244151)
(11.9029 0.459669 -0.164693)
(11.9211 0.364935 -0.0996658)
(11.9639 0.55214 -0.206017)
(11.9906 0.434975 -0.141691)
(11.6269 -0.360164 0.399905)
(11.5637 -0.317883 0.464918)
(11.8821 -0.279475 0.333578)
(11.8601 -0.219988 0.381254)
(11.9033 -0.211571 0.403892)
(12.2832 -0.266557 0.515364)
(12.0872 -0.278679 0.511429)
(11.7323 -0.301902 0.427469)
(12.06 -0.336143 0.370661)
(12.7976 -0.210228 0.651279)
(12.7947 -0.227054 0.6367)
(11.908 -0.298009 0.503817)
(12.7689 -0.283232 0.506666)
(12.5418 -0.292372 0.478184)
(12.7177 -0.221573 0.593361)
(12.9218 -0.222065 0.635348)
(12.9483 -0.210317 0.600655)
(12.5917 -0.293342 0.547312)
(12.8673 -0.211443 0.560829)
(1.36592 0.841306 -1.05097)
(1.51323 0.737212 -1.30751)
(2.28331 0.500293 -1.19406)
(1.9809 0.567039 -1.0587)
(1.74977 0.600657 -1.07749)
(1.89182 0.53825 -1.1875)
(2.37259 0.233019 -1.05829)
(2.65747 0.114244 -1.13862)
(2.88066 0.0591313 -1.13672)
(2.80458 0.0812035 -1.01966)
(3.47954 -0.219373 -0.941374)
(3.53594 -0.274855 -1.02659)
(3.03162 0.253221 -1.06434)
(3.38319 -0.0850353 -1.13662)
(3.15897 0.158335 -1.00177)
(2.42511 0.351721 -1.14514)
(10.9252 0.508201 -0.318041)
(10.843 0.475929 -0.250705)
(10.8951 0.486176 -0.331704)
(10.9901 0.545299 -0.39666)
(10.9196 0.538437 -0.671277)
(10.8433 0.5296 -0.664384)
(10.8519 0.481871 -0.30765)
(10.9515 0.555772 -0.538059)
(10.888 0.563192 -0.65885)
(10.8399 0.529251 -0.668088)
(10.8103 0.402752 -0.378861)
(10.9033 0.464932 -0.49015)
(10.893 0.551451 -0.489845)
(10.7729 0.414787 -0.38071)
(10.7318 0.411303 -0.388799)
(10.8015 0.507036 -0.511427)