/*--------------------------------*- C++ -*----------------------------------*\
  =========                 |
  \\      /  F ield         | OpenFOAM: The Open Source CFD Toolbox
   \\    /   O peration     | Website:  https://openfoam.org
    \\  /    A nd           | Version:  10
     \\/     M anipulation  |
\*---------------------------------------------------------------------------*/
FoamFile
{
    format      ascii;
    class       volScalarField;
    location    "11";
    object      C;
}
// * * * * * * * * * * * * * * * * * * * * * * * * * * * * * * * * * * * * * //

dimensions      [1 3 0 0 0 0 0];

internalField   nonuniform List<scalar> 
75457
(
0.499638
0.499583
0.499743
0.499841
0.499877
0.499871
0.499755
0.49974
0.499965
0.499965
0.499964
0.499895
0.499895
0.499949
0.498065
0.498369
0.499213
0.498735
0.498578
0.499205
0.498834
0.499004
0.498423
0.498416
0.499033
0.497454
0.497282
0.485418
0.481722
0.485282
0.487525
0.480949
0.481149
0.491598
0.491513
0.492205
0.491621
0.479653
0.481792
0.492201
0.492713
0.492241
0.492147
0.497808
0.496758
0.4987
0.498695
0.497919
0.49997
0.499779
0.499763
0.499965
0.499965
0.4998
0.499858
0.499895
0.499925
0.499925
0.499977
0.49997
0.499955
0.499974
0.5
0.5
0.5
0.5
0.5
0.5
0.5
0.5
0.5
0.5
0.5
0.5
0.5
0.5
0.5
0.160011
0.0350809
0.0368331
0.165145
0.0674462
0.139158
0.0234074
0.0312584
0.0296941
0.0647835
0.079512
0.165591
0.213732
0.0207324
0.0306672
0.174793
0.0262358
0.5
0.5
0.5
0.5
0.5
0.5
0.5
0.5
0.5
0.5
0.5
0.5
0.5
0.5
0.5
0.5
0.5
0.5
0.5
0.5
0.5
0.5
0.5
0.5
0.5
0.5
0.5
0.5
0.5
0.5
0.5
0.5
0.5
0.5
0.5
0.5
0.5
0.5
0.5
0.5
0.5
0.5
0.5
0.5
0.5
0.5
0.5
0.5
0.5
0.5
0.5
0.5
0.5
0.5
0.5
0.5
0.5
0.5
0.5
0.5
0.5
0.5
0.5
0.5
0.5
0.5
0.5
0.5
0.5
0.5
0.5
0.5
0.5
0.5
0.5
0.5
0.5
0.5
0.5
0.5
0.5
0.5
0.5
0.5
0.5
0.5
0.5
0.5
0.5
0.5
0.5
0.5
0.5
0.5
0.5
0.5
0.497081
0.496472
0.496142
0.494199
0.492971
0.493677
0.5
0.5
0.5
0.5
0.5
0.5
0.5
0.5
0.5
0.5
0.5
0.499984
0.499991
0.499991
0.499983
0.499964
0.49999
0.499983
0.499965
0.499975
0.499991
0.49996
0.499981
0.49999
0.499984
0.5
0.5
0.5
0.5
0.5
0.5
0.5
0.5
0.5
0.5
0.5
0.5
0.5
0.5
0.499603
0.499424
0.499596
0.499753
0.499761
0.499558
0.499783
0.49958
0.499392
0.499644
0.499481
0.499796
0.499853
0.499411
0.49955
0.499818
0.499567
0.491953
0.492337
0.492239
0.492395
0.494304
0.494647
0.494886
0.496598
0.496581
0.496573
0.491879
0.494775
0.499578
0.499664
0.499064
0.499574
0.499656
0.499543
0.499555
0.499649
0.498659
0.498583
0.499566
0.498726
0.499557
0.5
0.5
0.5
0.5
0.5
0.5
0.5
0.5
0.5
0.5
0.5
0.5
0.5
0.5
0.5
0.472565
0.473683
0.465569
0.468603
0.47132
0.475144
0.473972
0.472138
0.473691
0.0167423
0.0172948
0.0298008
0.0273462
0.0296269
0.0288005
0.0374782
0.0447459
0.0261527
0.0404137
0.052384
0.0299111
0.0373547
0.137623
0.0889
0.0468268
0.102139
0.112313
0.106124
0.0973391
0.0068759
0.00481217
0.00410909
0.00641319
0.5
0.5
0.5
0.5
0.5
0.5
0.5
0.5
0.5
0.5
0.5
0.5
0.5
0.5
0.5
0.5
0.5
0.267097
0.282921
0.268743
0.349586
0.256346
0.244993
0.259149
0.302611
0.263459
0.332202
0.300298
0.495195
0.497146
0.497335
0.494744
0.49709
0.487431
0.487194
0.494584
0.497251
0.494391
0.497195
0.498403
0.499169
0.498172
0.499216
0.499137
0.498574
0.498554
0.49836
0.498312
0.498943
0.498783
0.498459
0.49921
0.499329
0.499094
0.244957
0.201083
0.193763
0.245207
0.155989
0.499936
0.49994
0.499811
0.499912
0.499579
0.499583
0.499899
0.5
0.5
0.5
0.5
0.5
0.5
0.5
0.5
0.5
0.5
0.5
0.5
0.5
0.5
0.5
0.5
0.5
0.5
0.5
0.5
0.5
0.5
0.5
0.5
0.5
0.5
0.5
0.5
0.5
0.5
0.5
0.5
0.5
0.5
0.5
0.5
0.5
0.5
0.5
0.5
0.5
0.5
0.5
0.5
0.5
0.5
0.5
0.5
0.5
0.5
0.5
0.5
0.5
0.49999
0.499864
0.499882
0.499866
0.499886
0.49999
0.499917
0.499967
0.49989
0.499989
0.499929
0.499911
0.49996
0.499914
0.499961
0.499987
0.499849
0.499168
0.499145
0.499162
0.499924
0.49991
0.499186
0.499183
0.499983
0.499983
0.499583
0.499929
0.499764
0.499707
0.499924
0.499982
0.5
0.5
0.5
0.5
0.5
0.5
0.5
0.5
0.5
0.5
0.5
0.5
0.5
0.5
0.5
0.5
0.5
0.5
0.5
0.5
0.5
0.5
0.5
0.5
0.5
0.5
0.5
0.5
0.5
0.5
0.5
0.5
0.5
0.5
0.5
0.5
0.5
0.5
0.5
0.5
0.5
0.5
0.5
0.5
0.5
0.5
0.5
0.5
0.5
0.5
0.5
0.5
0.5
0.5
0.5
0.5
0.5
0.5
0.5
0.5
0.5
0.5
0.5
0.5
0.5
0.5
0.5
0.5
0.473921
0.475385
0.476478
0.473071
0.472364
0.472642
0.464138
0.463886
0.472494
0.474849
0.476593
0.473054
0.459187
0.463484
0.463846
0.465885
0.463303
0.463607
0.496059
0.497653
0.497869
0.49882
0.497211
0.498843
0.496049
0.497529
0.497659
0.498836
0.498493
0.49748
0.49866
0.495998
0.488659
0.489527
0.486947
0.490433
0.486793
0.486629
0.485194
0.489417
0.490249
0.485647
0.485702
0.485265
0.489087
0.492013
0.49202
0.485906
0.490901
0.486777
0.5
0.5
0.5
0.5
0.5
0.5
0.5
0.5
0.5
0.5
0.5
0.5
0.483214
0.490628
0.481855
0.490076
0.482267
0.486538
0.483199
0.483584
0.485381
0.492965
0.494323
0.493577
0.491872
0.492142
0.494288
0.492322
0.496721
0.495762
0.496492
0.495986
0.493151
0.491595
0.487506
0.493386
0.493518
0.495949
0.496309
0.495217
0.487552
0.495082
0.493655
0.493584
0.5
0.5
0.5
0.5
0.5
0.5
0.5
0.5
0.5
0.5
0.5
0.5
0.5
0.5
0.5
0.5
0.5
0.5
0.5
0.490283
0.489648
0.492232
0.486963
0.490958
0.487472
0.490969
0.494629
0.489193
0.49587
0.488098
0.492349
0.492092
0.492607
0.431993
0.426523
0.456659
0.445574
0.439814
0.455701
0.473461
0.458999
0.452682
0.481539
0.477013
0.447207
0.478843
0.469412
0.471669
0.47983
0.477148
0.474916
0.499888
0.499797
0.499775
0.499963
0.499955
0.499826
0.499904
0.499961
0.499953
0.4998
0.49985
0.358882
0.363004
0.359578
0.354449
0.269417
0.242043
0.240122
0.215205
0.368092
0.375918
0.3475
0.294785
0.287217
0.287544
0.273928
0.28082
0.224665
0.370495
0.347049
0.36426
0.341355
0.49992
0.499924
0.499993
0.499976
0.499993
0.499927
0.499922
0.499998
0.5
0.499997
0.499989
0.499998
0.499998
0.499997
0.5
0.499999
0.5
0.495015
0.494147
0.492524
0.490121
0.494806
0.494182
0.490016
0.489941
0.493021
0.490203
0.491035
0.410571
0.407066
0.406712
0.338716
0.392932
0.300416
0.280681
0.349047
0.391073
0.395035
0.337374
0.340291
0.343794
0.499095
0.499071
0.499403
0.499438
0.498607
0.498693
0.498439
0.498352
0.499648
0.499584
0.498935
0.499051
0.499697
0.498469
0.499724
0.499514
0.49906
0.499261
0.499569
0.499684
0.499632
0.49895
0.498437
0.499284
0.497537
0.499341
0.499438
0.497093
0.497254
0.49934
0.498257
0.496818
0.498316
0.498503
0.49557
0.499212
0.498198
0.494621
0.496597
0.498776
0.499418
0.499296
0.499505
0.498803
0.497689
0.497798
0.49953
0.49896
0.497654
0.497357
0.499308
0.49928
0.499348
0.499493
0.499454
0.498948
0.499339
0.499207
0.499316
0.498933
0.497397
0.497619
0.497935
0.49747
0.488399
0.488874
0.496775
0.496248
0.495838
0.494698
0.496123
0.495804
0.494017
0.489173
0.488302
0.490327
0.494977
0.49587
0.496513
0.490375
0.492775
0.496725
0.496703
0.497467
0.497794
0.497957
0.498028
0.498519
0.498375
0.498389
0.498141
0.4982
0.49847
0.497699
0.497445
0.5
0.5
0.5
0.5
0.5
0.5
0.5
0.5
0.5
0.5
0.499571
0.499579
0.499693
0.499737
0.498965
0.498601
0.499691
0.499795
0.498839
0.499629
0.499372
0.499377
0.49968
0.498411
0.499682
0.499355
0.498256
0.49272
0.493004
0.491197
0.486089
0.485118
0.48963
0.490647
0.490282
0.487998
0.486853
0.491913
0.491848
0.493251
0.492683
0.488107
0.485653
0.483914
0.490672
0.492021
0.490022
0.5
0.5
0.5
0.5
0.5
0.5
0.5
0.5
0.5
0.5
0.5
0.5
0.5
0.5
0.5
0.5
0.350935
0.344851
0.334374
0.339542
0.421671
0.385701
0.442089
0.396302
0.366194
0.380605
0.440947
0.393185
0.371545
0.489814
0.489128
0.490864
0.493106
0.494663
0.492951
0.489182
0.492245
0.493848
0.493183
0.49599
0.492679
0.5
0.5
0.5
0.5
0.5
0.5
0.5
0.5
0.5
0.5
0.5
0.5
0.5
0.5
0.5
0.5
0.5
0.5
0.5
0.488009
0.487318
0.492391
0.492342
0.492332
0.492658
0.491203
0.489456
0.492871
0.496555
0.496581
0.490058
0.496829
0.495639
0.495832
0.497522
0.497891
0.495762
0.497283
0.0522155
0.0717834
0.129896
0.0716307
0.0720464
0.0992301
0.121912
0.150088
0.167244
0.164407
0.239298
0.234847
0.199023
0.203081
0.219721
0.128867
0.5
0.5
0.5
0.5
0.5
0.5
0.5
0.5
0.5
0.5
0.5
0.5
0.5
0.5
0.5
0.5
0.453855
0.416031
0.46214
0.421731
0.454273
0.397011
0.487828
0.468313
0.49156
0.491602
0.487909
0.467185
0.419294
0.385015
0.454661
0.487537
0.487165
0.487588
0.467447
0.407615
0.5
0.5
0.5
0.5
0.5
0.5
0.5
0.5
0.5
0.5
0.5
0.5
0.5
0.5
0.5
0.5
0.5
0.5
0.5
0.5
0.5
0.5
0.5
0.499996
0.49999
0.499992
0.5
0.49999
0.499989
0.499991
0.499986
0.499996
0.49999
0.499992
0.49999
0.499995
0.499999
0.499992
0.499997
0.499995
0.499999
0.499996
0.499998
0.499998
0.499998
0.499936
0.499934
0.499907
0.499915
0.499981
0.499984
0.499868
0.499874
0.499932
0.499917
0.499979
0.499896
0.499911
0.499972
0.499942
0.49998
0.499978
0.499973
0.499972
0.499189
0.496583
0.497171
0.499236
0.49896
0.496931
0.49694
0.498366
0.497908
0.497523
0.4993
0.499312
0.49835
0.498565
0.498247
0.498565
0.499909
0.499824
0.49982
0.499758
0.499923
0.499896
0.499752
0.499823
0.499925
0.5
0.5
0.5
0.5
0.5
0.5
0.5
0.5
0.5
0.5
0.5
0.5
0.5
0.5
0.5
0.5
0.5
0.5
0.5
0.5
0.5
0.5
0.5
0.5
0.5
0.5
0.5
0.5
0.5
0.5
0.5
0.5
0.499979
0.499995
0.499996
0.499985
0.499993
0.499986
0.499997
0.499997
0.499997
0.499977
0.499987
0.499991
0.499994
0.49999
0.499994
0.499985
0.499994
0.499978
0.499993
0.499995
0.499996
0.499994
0.499991
0.49998
0.499985
0.499996
0.499995
0.499993
0.499994
0.499984
0.499984
0.499988
0.499977
0.499976
0.499991
0.49999
0.499986
0.49944
0.499588
0.499292
0.499395
0.499133
0.498909
0.498652
0.499144
0.498938
0.498835
0.496769
0.496977
0.497152
0.497625
0.499055
0.497573
0.27757
0.302762
0.283104
0.350813
0.313763
0.321034
0.348195
0.299213
0.198073
0.5
0.5
0.499999
0.499985
0.499998
0.5
0.499999
0.5
0.499985
0.499988
0.499997
0.499986
0.499923
0.499947
0.499855
0.499937
0.499822
0.499947
0.499953
0.499954
0.499822
0.499826
0.499833
0.499962
0.499861
0.499954
0.499949
0.499964
0.5
0.5
0.5
0.5
0.5
0.5
0.5
0.5
0.5
0.5
0.5
0.5
0.5
0.5
0.5
0.5
0.5
0.5
0.5
0.5
0.5
0.5
0.5
0.5
0.5
0.5
0.5
0.5
0.499996
0.499997
0.499996
0.499995
0.499995
0.499992
0.499999
0.499999
0.49999
0.49999
0.49999
0.499999
0.499999
0.499996
0.499998
0.499997
0.499999
0.499999
0.5
0.5
0.5
0.5
0.5
0.5
0.5
0.5
0.5
0.5
0.5
0.5
0.5
0.5
0.5
0.5
0.5
0.5
0.5
0.5
0.5
0.5
0.5
0.5
0.5
0.5
0.5
0.5
0.5
0.5
0.5
0.5
0.5
0.5
0.49949
0.499491
0.499445
0.499498
0.499226
0.499424
0.499496
0.499544
0.499539
0.499317
0.49945
0.499608
0.49969
0.499582
0.499704
0.49967
0.499603
0.49968
0.499742
0.499994
0.499997
0.499997
0.499999
0.496033
0.495495
0.499973
0.499957
0.499995
0.499996
0.499973
0.499989
0.499999
0.49646
0.492578
0.498936
0.499984
0.499981
0.499984
0.499971
0.486073
0.489362
0.479126
0.489811
0.485165
0.483051
0.482266
0.467794
0.488887
0.488531
0.480781
0.488239
0.471375
0.475788
0.468801
0.488314
0.487197
0.488687
0.477235
0.233938
0.256454
0.30186
0.283366
0.250134
0.230841
0.326097
0.340357
0.338964
0.353465
0.336989
0.218238
0.250357
0.337212
0.284173
0.251318
0.5
0.5
0.5
0.5
0.5
0.5
0.5
0.5
0.5
0.5
0.5
0.5
0.5
0.5
0.5
0.5
0.5
0.5
0.5
0.5
0.5
0.5
0.5
0.5
0.5
0.5
0.5
0.5
0.5
0.5
0.5
0.5
0.5
0.5
0.5
0.5
0.5
0.5
0.5
0.5
0.5
0.5
0.5
0.5
0.5
0.5
0.5
0.5
0.5
0.5
0.5
0.5
0.5
0.5
0.5
0.5
0.5
0.5
0.5
0.5
0.5
0.499999
0.499999
0.499999
0.499999
0.499999
0.499999
0.499999
0.499999
0.5
0.5
0.5
0.5
0.5
0.5
0.5
0.5
0.5
0.5
0.5
0.5
0.5
0.5
0.5
0.5
0.5
0.5
0.5
0.5
0.5
0.5
0.5
0.5
0.5
0.5
0.5
0.5
0.5
0.5
0.5
0.5
0.5
0.5
0.5
0.5
0.5
0.5
0.5
0.5
0.5
0.5
0.5
0.5
0.5
0.5
0.5
0.5
0.5
0.5
0.5
0.5
0.5
0.5
0.5
0.5
0.5
0.5
0.5
0.5
0.5
0.5
0.5
0.5
0.5
0.5
0.5
0.5
0.5
0.5
0.5
0.5
0.5
0.5
0.5
0.5
0.5
0.5
0.5
0.5
0.5
0.5
0.5
0.5
0.5
0.5
0.5
0.5
0.5
0.5
0.5
0.5
0.5
0.5
0.5
0.5
0.5
0.5
0.5
0.5
0.5
0.5
0.5
0.5
0.5
0.5
0.5
0.5
0.5
0.5
0.5
0.5
0.5
0.5
0.5
0.5
0.5
0.5
0.499999
0.499999
0.499999
0.499999
0.499999
0.499977
0.499945
0.499993
0.499934
0.499965
0.499977
0.499952
0.499938
0.49999
0.291493
0.292018
0.297372
0.286244
0.5
0.5
0.5
0.5
0.5
0.5
0.5
0.5
0.5
0.5
0.5
0.5
0.5
0.5
0.5
0.5
0.5
0.5
0.5
0.5
0.5
0.5
0.456971
0.469044
0.459176
0.44765
0.455264
0.471855
0.468835
0.463195
0.450357
0.448699
0.429828
0.451533
0.406075
0.38578
0.434907
0.444291
0.499999
0.499999
0.499998
0.499999
0.499992
0.499993
0.499997
0.499997
0.499999
0.499997
0.499997
0.499999
0.499997
0.499999
0.499993
0.499997
0.499999
0.499999
0.499999
0.499999
0.499998
0.499999
0.5
0.5
0.5
0.5
0.499999
0.499999
0.5
0.5
0.5
0.499999
0.499999
0.5
0.499999
0.5
0.5
0.499998
0.499998
0.499998
0.5
0.421035
0.419573
0.418709
0.44355
0.419855
0.418904
0.44529
0.423044
0.42489
0.442958
0.420771
0.402962
0.400802
0.40255
0.400924
0.418882
0.439922
0.44021
0.431689
0.433697
0.439797
0.417234
0.5
0.5
0.5
0.5
0.5
0.5
0.5
0.5
0.5
0.5
0.5
0.5
0.5
0.5
0.5
0.5
0.5
0.5
0.5
0.5
0.5
0.5
0.5
0.5
0.5
0.5
0.5
0.5
0.5
0.5
0.5
0.5
0.5
0.5
0.5
0.5
0.5
0.5
0.5
0.5
0.5
0.5
0.5
0.5
0.5
0.5
0.5
0.5
0.5
0.5
0.444035
0.435452
0.447536
0.437368
0.446936
0.467819
0.453346
0.469897
0.463936
0.476415
0.487151
0.484923
0.4611
0.477458
0.487355
0.472435
0.471465
0.486951
0.484571
0.493115
0.49336
0.494059
0.493873
0.485752
0.484798
0.491084
0.490688
0.492498
0.495965
0.491634
0.493879
0.491581
0.494975
0.492976
0.495132
0.493921
0.495699
0.495488
0.494944
0.483621
0.484004
0.487355
0.485247
0.485213
0.490971
0.492553
0.486004
0.48738
0.495811
0.49529
0.494096
0.492151
0.495154
0.496572
0.495616
0.494025
0.496494
0.381218
0.418101
0.437741
0.431039
0.441838
0.432335
0.379893
0.407476
0.421223
0.397756
0.432496
0.434353
0.420122
0.431658
0.363371
0.409777
0.400256
0.5
0.5
0.5
0.5
0.5
0.5
0.5
0.5
0.5
0.5
0.498843
0.499546
0.498189
0.498217
0.499879
0.499586
0.498554
0.498448
0.498443
0.498606
0.499054
0.499641
0.49873
0.49991
0.499798
0.49906
0.499652
0.499688
0.499999
0.499999
0.499999
0.499999
0.5
0.5
0.5
0.5
0.5
0.5
0.5
0.5
0.5
0.498154
0.498096
0.498054
0.498017
0.495707
0.497465
0.497396
0.497593
0.491709
0.491867
0.495282
0.49538
0.496238
0.495143
0.499743
0.499935
0.499314
0.499768
0.499958
0.499767
0.499471
0.499744
0.499911
0.499805
0.499911
0.499745
0.499654
0.499901
0.499475
0.0456772
0.0547211
0.0448707
0.0353095
0.0594946
0.0455039
0.0536999
0.0789729
0.0317199
0.0354007
0.040431
0.0617237
0.076687
0.0680416
0.0574759
0.0951849
0.0836693
0.0526622
0.5
0.5
0.5
0.5
0.5
0.5
0.5
0.5
0.5
0.5
0.5
0.5
0.5
0.5
0.499999
0.499999
0.5
0.5
0.5
0.5
0.5
0.5
0.5
0.499998
0.499999
0.5
0.5
0.5
0.5
0.499999
0.499999
0.5
0.158331
0.124006
0.112735
0.106092
0.145726
0.112233
0.0927392
0.112124
0.0852562
0.0992581
0.0981464
0.0849147
0.0689874
0.102735
0.0825625
0.0632161
0.0583155
0.132134
0.5
0.5
0.5
0.5
0.5
0.5
0.5
0.5
0.5
0.5
0.5
0.5
0.5
0.5
0.5
0.5
0.5
0.5
0.5
0.499287
0.49926
0.499554
0.499484
0.498239
0.498174
0.497903
0.497357
0.497625
0.497714
0.498802
0.498969
0.499275
0.499019
0.49765
0.497504
0.497902
0.498556
0.5
0.5
0.5
0.5
0.5
0.5
0.5
0.5
0.5
0.5
0.5
0.5
0.5
0.5
0.5
0.5
0.5
0.5
0.5
0.5
0.5
0.5
0.5
0.5
0.5
0.5
0.5
0.5
0.5
0.5
0.5
0.5
0.5
0.5
0.5
0.5
0.5
0.5
0.5
0.5
0.5
0.5
0.5
0.5
0.5
0.5
0.5
0.5
0.5
0.5
0.5
0.5
0.5
0.5
0.5
0.5
0.5
0.5
0.5
0.5
0.5
0.5
0.5
0.5
0.5
0.5
0.5
0.5
0.5
0.5
0.5
0.5
0.5
0.5
0.5
0.5
0.5
0.5
0.5
0.5
0.49965
0.499656
0.499673
0.499884
0.499856
0.499784
0.499688
0.499781
0.499727
0.499824
0.499904
0.499662
0.499826
0.499862
0.499782
0.499554
0.499542
0.499405
0.499672
0.499462
0.499587
0.499546
0.499382
0.499521
0.499339
0.499633
0.499286
0.499434
0.499877
0.499921
0.499912
0.499785
0.499615
0.5
0.5
0.5
0.5
0.5
0.5
0.5
0.5
0.5
0.5
0.5
0.5
0.5
0.5
0.5
0.485486
0.487678
0.488937
0.488998
0.48428
0.488804
0.482677
0.479161
0.481374
0.5
0.5
0.5
0.5
0.5
0.5
0.5
0.5
0.5
0.5
0.5
0.5
0.5
0.5
0.5
0.5
0.5
0.5
0.5
0.5
0.5
0.5
0.5
0.5
0.5
0.5
0.5
0.5
0.5
0.5
0.5
0.5
0.5
0.5
0.5
0.5
0.5
0.5
0.5
0.5
0.5
0.5
0.5
0.5
0.5
0.5
0.5
0.5
0.5
0.5
0.5
0.5
0.5
0.5
0.5
0.5
0.5
0.5
0.5
0.5
0.5
0.5
0.5
0.5
0.5
0.5
0.5
0.5
0.498369
0.498237
0.498016
0.498164
0.49941
0.499209
0.499402
0.499411
0.498057
0.49974
0.499363
0.4987
0.499074
0.499841
0.499916
0.499497
0.499769
0.499579
0.499787
0.499918
0.499911
0.499894
0.499923
0.499493
0.499927
0.499741
0.499996
0.499995
0.499995
0.499995
0.499998
0.499998
0.499999
0.499986
0.499989
0.499987
0.499989
0.49999
0.499988
0.499994
0.499994
0.499995
0.499994
0.49999
0.5
0.5
0.5
0.5
0.5
0.5
0.5
0.5
0.5
0.5
0.5
0.5
0.5
0.5
0.5
0.5
0.5
0.5
0.5
0.5
0.5
0.5
0.5
0.5
0.5
0.5
0.486189
0.489698
0.487959
0.486453
0.487531
0.488051
0.486727
0.486439
0.486088
0.485115
0.485504
0.486698
0.485019
0.498029
0.499425
0.499531
0.499235
0.499122
0.498014
0.498007
0.49816
0.499505
0.499293
0.499036
0.498936
0.49932
0.499198
0.499068
0.499697
0.49988
0.499858
0.499458
0.499643
0.499883
0.499891
0.499902
0.499905
0.499913
0.499848
0.499858
0.499334
0.499728
0.499836
0.499657
0.499891
0.499954
0.499832
0.499923
0.499904
0.49997
0.499883
0.49974
0.499899
0.499964
0.49993
0.499892
0.499903
0.499748
0.369871
0.368783
0.406421
0.424279
0.394356
0.404561
0.384734
0.386803
0.405132
0.401919
0.383358
0.5
0.5
0.5
0.5
0.5
0.5
0.5
0.5
0.5
0.5
0.5
0.5
0.5
0.5
0.5
0.5
0.5
0.5
0.5
0.5
0.5
0.5
0.5
0.5
0.5
0.5
0.5
0.5
0.5
0.5
0.5
0.5
0.5
0.5
0.5
0.5
0.5
0.5
0.5
0.5
0.5
0.5
0.5
0.5
0.5
0.5
0.5
0.5
0.5
0.5
0.5
0.5
0.5
0.5
0.5
0.5
0.5
0.5
0.5
0.5
0.5
0.5
0.5
0.5
0.5
0.5
0.5
0.5
0.5
0.5
0.5
0.5
0.5
0.5
0.5
0.5
0.5
0.5
0.5
0.5
0.5
0.5
0.5
0.5
0.5
0.5
0.5
0.5
0.5
0.5
0.5
0.5
0.5
0.5
0.5
0.5
0.5
0.5
0.5
0.499664
0.499684
0.499643
0.499649
0.499878
0.499797
0.499865
0.499718
0.499977
0.499974
0.499917
0.499974
0.499948
0.499911
0.499975
0.499976
0.49988
0.499915
0.492023
0.485305
0.490036
0.489378
0.490672
0.487082
0.495494
0.495739
0.487014
0.49562
0.491879
0.485038
0.49229
0.492306
0.492681
0.493834
0.49569
0.490715
0.489585
0.495771
0.486564
0.49267
0.494742
0.495701
0.490213
0.486662
0.486711
0.499415
0.499288
0.49934
0.499517
0.499071
0.487565
0.482055
0.487186
0.495435
0.478074
0.497287
0.4814
0.398346
0.407089
0.460378
0.403589
0.395988
0.475117
0.433341
0.496505
0.346716
0.361535
0.43243
0.404674
0.353181
0.456009
0.440464
0.343303
0.349679
0.450639
0.46161
0.382261
0.402949
0.456292
0.452746
0.406573
0.393338
0.425301
0.5
0.5
0.5
0.5
0.5
0.5
0.5
0.5
0.5
0.5
0.5
0.5
0.5
0.5
0.5
0.5
0.5
0.5
0.5
0.5
0.49966
0.4996
0.499783
0.499823
0.499818
0.499855
0.499809
0.499752
0.499572
0.499683
0.499821
0.499799
0.499797
0.499808
0.499937
0.499999
0.49993
0.499917
0.5
0.499997
0.499855
0.499983
0.5
0.499946
0.499924
0.499854
0.5
0.499998
0.5
0.5
0.5
0.5
0.477584
0.462239
0.463058
0.424101
0.410645
0.444858
0.453059
0.49015
0.414665
0.45
0.484014
0.480933
0.484213
0.480182
0.467431
0.492445
0.431859
0.450807
0.493017
0.481786
0.490062
0.495485
0.5
0.5
0.5
0.5
0.5
0.5
0.5
0.5
0.5
0.5
0.5
0.5
0.5
0.5
0.5
0.5
0.5
0.5
0.5
0.5
0.5
0.5
0.5
0.5
0.5
0.5
0.5
0.5
0.5
0.5
0.5
0.5
0.5
0.5
0.5
0.378498
0.331133
0.368626
0.3116
0.340474
0.328081
0.335184
0.390347
0.499997
0.499995
0.5
0.5
0.499999
0.499999
0.499999
0.499996
0.5
0.499999
0.499995
0.499999
0.5
0.5
0.5
0.5
0.5
0.5
0.5
0.5
0.5
0.5
0.5
0.5
0.5
0.5
0.5
0.5
0.5
0.5
0.5
0.499999
0.499997
0.499998
0.499999
0.5
0.499999
0.499995
0.499997
0.499995
0.499995
0.499997
0.499999
0.499995
0.499996
0.499996
0.499994
0.499994
0.495968
0.496993
0.497533
0.498384
0.49695
0.497858
0.498217
0.498238
0.49846
0.498672
0.496323
0.498548
0.49877
0.498615
0.495042
0.496575
0.498023
0.49834
0.498521
0.498643
0.495319
0.498408
0.5
0.5
0.5
0.5
0.5
0.5
0.5
0.5
0.5
0.5
0.5
0.5
0.5
0.5
0.5
0.5
0.322824
0.333571
0.336395
0.33126
0.313869
0.311547
0.341069
0.351032
0.34595
0.338678
0.364208
0.362076
0.319481
0.339304
0.330319
0.344742
0.301211
0.295854
0.499399
0.493039
0.493702
0.497194
0.496969
0.496785
0.491815
0.49235
0.49942
0.499404
0.497002
0.496808
0.49808
0.499238
0.49922
0.499175
0.5
0.5
0.5
0.5
0.5
0.5
0.5
0.5
0.5
0.5
0.5
0.5
0.5
0.5
0.5
0.5
0.5
0.5
0.5
0.5
0.49999
0.49999
0.499951
0.499965
0.499999
0.499997
0.5
0.499998
0.499982
0.499978
0.5
0.499998
0.499998
0.499998
0.5
0.5
0.497939
0.497767
0.497998
0.496893
0.499246
0.496751
0.49899
0.496735
0.498974
0.499744
0.49917
0.499655
0.499369
0.499239
0.498963
0.499263
0.499366
0.498612
0.49905
0.499656
0.499341
0.499488
0.498605
0.498995
0.499587
0.499655
0.498839
0.499192
0.499599
0.499979
0.499957
0.499867
0.499913
0.499916
0.499928
0.499935
0.499985
0.499957
0.499984
0.499977
0.499972
0.499942
0.49988
0.499883
0.499966
0.499941
0.499914
0.499935
0.499946
0.499974
0.499971
0.499935
0.499956
0.499931
0.499945
0.499945
0.5
0.499999
0.499998
0.499999
0.499999
0.499999
0.499999
0.499999
0.499997
0.499988
0.499988
0.5
0.5
0.5
0.5
0.5
0.5
0.5
0.5
0.5
0.5
0.5
0.5
0.5
0.5
0.5
0.5
0.5
0.5
0.5
0.5
0.5
0.5
0.5
0.5
0.5
0.5
0.5
0.5
0.5
0.5
0.5
0.5
0.5
0.5
0.5
0.5
0.5
0.5
0.5
0.5
0.499214
0.49907
0.499024
0.499238
0.499755
0.499762
0.49982
0.499856
0.499148
0.499699
0.499792
0.499741
0.499791
0.49969
0.499702
0.5
0.5
0.5
0.5
0.5
0.5
0.5
0.5
0.5
0.5
0.5
0.5
0.5
0.5
0.5
0.5
0.5
0.454595
0.450855
0.454164
0.44827
0.469727
0.468138
0.462348
0.463488
0.470758
0.473184
0.447563
0.459801
0.459905
0.467329
0.468179
0.461258
0.457576
0.464096
0.464581
0.467249
0.469077
0.461615
0.492494
0.491596
0.484569
0.48722
0.486746
0.482252
0.493492
0.492478
0.49154
0.491223
0.493571
0.49014
0.483438
0.484785
0.484432
0.499999
0.499999
0.499997
0.499996
0.5
0.499999
0.499999
0.499999
0.5
0.499995
0.499998
0.499996
0.5
0.5
0.499999
0.5
0.497585
0.49697
0.49861
0.497837
0.49748
0.495635
0.495973
0.495839
0.496747
0.497545
0.49809
0.495966
0.498747
0.498455
0.495754
0.497736
0.497603
0.497776
0.5
0.5
0.5
0.5
0.5
0.5
0.5
0.5
0.5
0.5
0.5
0.5
0.5
0.5
0.5
0.5
0.5
0.5
0.5
0.5
0.5
0.5
0.5
0.5
0.5
0.5
0.5
0.5
0.5
0.5
0.5
0.5
0.5
0.5
0.5
0.5
0.5
0.5
0.5
0.5
0.5
0.5
0.5
0.5
0.5
0.5
0.5
0.497664
0.497984
0.497762
0.49815
0.49002
0.491905
0.493241
0.489921
0.490461
0.49702
0.495625
0.497658
0.497974
0.491346
0.49597
0.496304
0.494449
0.494483
0.491655
0.492715
0.492724
0.488112
0.488003
0.481457
0.481653
0.490732
0.483892
0.483744
0.481984
0.5
0.5
0.5
0.5
0.5
0.5
0.5
0.5
0.5
0.5
0.5
0.5
0.5
0.5
0.5
0.499522
0.499645
0.49983
0.499604
0.499999
0.5
0.5
0.5
0.5
0.5
0.5
0.5
0.5
0.499999
0.499919
0.5
0.5
0.5
0.5
0.5
0.5
0.5
0.5
0.5
0.5
0.5
0.5
0.5
0.5
0.5
0.5
0.5
0.499417
0.499365
0.499123
0.499128
0.499474
0.499567
0.499323
0.499058
0.499033
0.499256
0.498833
0.498659
0.499434
0.499016
0.498646
0.499029
0.498858
0.498438
0.413061
0.402508
0.407605
0.409007
0.416024
0.406125
0.411492
0.389104
0.394756
0.408012
0.409083
0.41085
0.41409
0.401076
0.397267
0.366643
0.344451
0.35084
0.350093
0.397751
0.499975
0.499966
0.499975
0.499972
0.499979
0.496454
0.496432
0.495691
0.4956
0.497447
0.497467
0.49791
0.497976
0.494536
0.495322
0.495486
0.496415
0.497597
0.496704
0.499625
0.499618
0.499901
0.499905
0.499633
0.499628
0.49989
0.499893
0.499902
0.499776
0.499217
0.5
0.5
0.5
0.5
0.5
0.5
0.5
0.5
0.5
0.5
0.5
0.498435
0.497937
0.498627
0.498727
0.498595
0.498483
0.498002
0.498981
0.498728
0.498497
0.498675
0.498361
0.499324
0.499297
0.499028
0.5
0.5
0.5
0.5
0.5
0.5
0.5
0.5
0.5
0.5
0.5
0.5
0.5
0.5
0.5
0.5
0.5
0.5
0.5
0.5
0.5
0.499776
0.499774
0.499816
0.49981
0.499841
0.499881
0.5
0.499999
0.499999
0.5
0.5
0.499999
0.499999
0.499962
0.5
0.499986
0.499964
0.5
0.5
0.5
0.5
0.5
0.5
0.5
0.5
0.5
0.5
0.5
0.5
0.5
0.5
0.5
0.5
0.5
0.5
0.5
0.5
0.5
0.5
0.5
0.5
0.5
0.5
0.5
0.5
0.5
0.5
0.5
0.5
0.5
0.5
0.499959
0.499981
0.499967
0.499981
0.49992
0.499911
0.499995
0.499911
0.499915
0.49999
0.499991
0.499916
0.499912
0.499991
0.5
0.5
0.5
0.5
0.5
0.5
0.5
0.5
0.5
0.5
0.5
0.473765
0.471222
0.459051
0.483171
0.470745
0.464111
0.468354
0.466126
0.457522
0.471941
0.475151
0.479872
0.479845
0.482292
0.480347
0.5
0.5
0.499999
0.499999
0.5
0.5
0.499999
0.5
0.5
0.5
0.5
0.5
0.5
0.5
0.5
0.5
0.5
0.5
0.499783
0.499708
0.499841
0.499837
0.499857
0.499542
0.499378
0.499462
0.49985
0.499842
0.499706
0.499937
0.499901
0.499504
0.499621
0.499392
0.499436
0.499366
0.499925
0.4999
0.499922
0.5
0.5
0.5
0.5
0.5
0.5
0.5
0.5
0.5
0.5
0.5
0.5
0.5
0.5
0.5
0.5
0.5
0.5
0.5
0.5
0.5
0.5
0.5
0.5
0.5
0.5
0.5
0.5
0.5
0.5
0.5
0.5
0.5
0.5
0.5
0.5
0.5
0.5
0.5
0.5
0.332369
0.246313
0.360079
0.35219
0.270738
0.213736
0.270377
0.317606
0.31076
0.319147
0.287719
0.344746
0.162235
0.134737
0.222703
0.202286
0.296095
0.432606
0.424628
0.432074
0.438212
0.409693
0.385811
0.409755
0.38763
0.43266
0.408296
0.418042
0.378289
0.417764
0.391714
0.376739
0.5
0.5
0.5
0.5
0.5
0.5
0.5
0.5
0.5
0.5
0.5
0.5
0.5
0.5
0.5
0.5
0.5
0.5
0.5
0.5
0.5
0.5
0.5
0.5
0.5
0.5
0.5
0.5
0.5
0.5
0.5
0.5
0.5
0.5
0.5
0.5
0.5
0.5
0.5
0.5
0.5
0.5
0.5
0.5
0.499924
0.491886
0.492753
0.493103
0.499849
0.498184
0.499932
0.499807
0.49969
0.499883
0.499896
0.499874
0.499878
0.499884
0.499889
0.499751
0.499597
0.499596
0.499444
0.499457
0.499703
0.499707
0.499549
0.49986
0.499607
0.49962
0.49984
0.5
0.5
0.5
0.5
0.5
0.5
0.5
0.5
0.5
0.5
0.5
0.5
0.5
0.5
0.5
0.5
0.5
0.5
0.5
0.5
0.5
0.5
0.5
0.5
0.5
0.5
0.5
0.5
0.5
0.5
0.5
0.499987
0.499984
0.499978
0.499979
0.499976
0.499978
0.499986
0.499977
0.49998
0.499977
0.5
0.5
0.5
0.5
0.5
0.5
0.5
0.5
0.5
0.5
0.5
0.5
0.5
0.5
0.5
0.5
0.5
0.5
0.5
0.5
0.5
0.5
0.5
0.5
0.5
0.5
0.5
0.5
0.5
0.5
0.5
0.5
0.5
0.5
0.5
0.5
0.5
0.5
0.5
0.5
0.5
0.5
0.5
0.5
0.5
0.5
0.5
0.5
0.5
0.5
0.5
0.5
0.5
0.5
0.5
0.5
0.5
0.5
0.5
0.5
0.5
0.5
0.5
0.5
0.5
0.5
0.5
0.5
0.5
0.5
0.5
0.5
0.5
0.5
0.5
0.5
0.5
0.5
0.5
0.5
0.5
0.5
0.5
0.5
0.5
0.5
0.5
0.5
0.5
0.5
0.5
0.5
0.5
0.5
0.5
0.5
0.5
0.5
0.5
0.5
0.5
0.5
0.5
0.5
0.5
0.5
0.5
0.5
0.5
0.5
0.5
0.5
0.5
0.5
0.5
0.5
0.5
0.5
0.5
0.5
0.5
0.5
0.5
0.499999
0.499999
0.499999
0.5
0.5
0.5
0.499999
0.499991
0.499989
0.49998
0.499978
0.5
0.499991
0.5
0.499996
0.499991
0.5
0.5
0.5
0.5
0.5
0.5
0.5
0.5
0.5
0.5
0.5
0.5
0.5
0.5
0.5
0.5
0.5
0.5
0.5
0.5
0.5
0.5
0.5
0.5
0.5
0.5
0.5
0.5
0.5
0.5
0.5
0.5
0.5
0.5
0.5
0.5
0.5
0.5
0.5
0.5
0.5
0.5
0.5
0.5
0.5
0.5
0.5
0.5
0.5
0.5
0.5
0.5
0.5
0.5
0.5
0.5
0.5
0.5
0.5
0.5
0.5
0.5
0.5
0.5
0.5
0.5
0.5
0.5
0.5
0.5
0.5
0.5
0.5
0.5
0.5
0.5
0.5
0.5
0.5
0.5
0.5
0.5
0.5
0.5
0.5
0.5
0.5
0.5
0.5
0.5
0.5
0.5
0.5
0.5
0.5
0.5
0.5
0.5
0.5
0.5
0.5
0.5
0.5
0.5
0.5
0.5
0.5
0.5
0.5
0.5
0.5
0.5
0.5
0.5
0.5
0.5
0.5
0.496919
0.497291
0.49826
0.498648
0.498003
0.499402
0.499403
0.498749
0.499554
0.499435
0.498948
0.49893
0.498772
0.49814
0.497063
0.497717
0.499416
0.498378
0.499384
0.499377
0.499416
0.498198
0.498337
0.49729
0.49919
0.499353
0.499235
0.499367
0.499388
0.499215
0.49924
0.499413
0.499385
0.499334
0.499133
0.49924
0.499298
0.5
0.5
0.5
0.5
0.5
0.5
0.5
0.5
0.5
0.5
0.5
0.5
0.5
0.5
0.5
0.5
0.499886
0.499913
0.499892
0.499764
0.499859
0.49978
0.499865
0.499873
0.499862
0.499737
0.499742
0.499787
0.49972
0.499781
0.499996
0.499998
0.499984
0.499989
0.499998
0.499998
0.499996
0.499999
0.499984
0.499989
0.499998
0.499999
0.499999
0.499993
0.499999
0.499999
0.499998
0.499983
0.499989
0.499986
0.499975
0.499973
0.499986
0.499986
0.499968
0.499969
0.499901
0.499935
0.499932
0.499924
0.499971
0.499963
0.499982
0.499981
0.499951
0.499972
0.49998
0.499971
0.499972
0.499973
0.5
0.5
0.5
0.5
0.5
0.5
0.5
0.5
0.5
0.5
0.5
0.5
0.5
0.5
0.5
0.5
0.5
0.5
0.5
0.5
0.5
0.5
0.5
0.5
0.5
0.5
0.5
0.5
0.5
0.5
0.5
0.5
0.5
0.5
0.5
0.5
0.5
0.367508
0.364867
0.369175
0.349775
0.342385
0.340749
0.32607
0.326877
0.325635
0.330886
0.33197
0.327531
0.43534
0.430928
0.47627
0.474944
0.402326
0.383513
0.486527
0.485982
0.486943
0.487024
0.487837
0.477308
0.479706
0.480162
0.175402
0.1514
0.0211459
0.0493531
0.314735
0.29101
0.360516
0.309678
0.366235
0.284004
0.224784
0.35451
0.272716
0.300496
0.280038
0.298287
0.347268
0.291917
0.0074936
0.00956626
0.0138674
0.0181161
0.0158461
0.00457079
0.0074637
0.0195144
0.0165591
0.00284084
0.0049743
0.00243533
0.0071983
0.00753797
0.00748198
0.0146455
0.013801
0.0068059
0.5
0.5
0.5
0.5
0.5
0.5
0.5
0.5
0.5
0.5
0.5
0.499999
0.499998
0.5
0.499999
0.499999
0.499995
0.499996
0.499995
0.499996
0.499998
0.499997
0.5
0.499999
0.499995
0.499995
0.499999
0.499997
0.499997
0.499993
0.499994
0.499997
0.499987
0.499996
0.499997
0.499997
0.499986
0.499994
0.499986
0.499993
0.499997
0.499967
0.499966
0.499993
0.499972
0.49998
0.499989
0.499989
0.499985
0.499981
0.499997
0.499997
0.499993
0.499999
0.499993
0.499993
0.499997
0.499998
0.499999
0.499997
0.499997
0.499989
0.499997
0.499997
0.49999
0.499993
0.499997
0.499998
0.499999
0.499997
0.499999
0.499999
0.499999
0.191859
0.214323
0.22433
0.30112
0.300386
0.107045
0.12836
0.184631
0.263773
0.143024
0.197053
0.185202
0.442441
0.449823
0.482763
0.482934
0.454609
0.449458
0.438822
0.473624
0.472831
0.447653
0.435934
0.5
0.5
0.5
0.5
0.499999
0.5
0.5
0.499999
0.5
0.499999
0.499999
0.5
0.5
0.5
0.497552
0.494504
0.495546
0.493839
0.483883
0.48817
0.479975
0.4932
0.497105
0.498285
0.489203
0.481951
0.49832
0.491592
0.484672
0.471453
0.460862
0.461936
0.472929
0.486859
0.491196
0.472871
0.491956
0.494375
0.482259
0.479464
0.483572
0.492976
0.491373
0.485976
0.487119
0.488815
0.492466
0.492222
0.492738
0.496097
0.49568
0.49438
0.495529
0.494414
0.495794
0.496908
0.49739
0.497404
0.494782
0.497176
0.495608
0.496506
0.495433
0.495256
0.496674
0.495977
0.494166
0.489104
0.489217
0.494469
0.490862
0.491341
0.37586
0.375837
0.374718
0.306197
0.304976
0.358259
0.317686
0.322752
0.366764
0.369026
0.359483
0.354643
0.494627
0.494823
0.494415
0.494353
0.49178
0.494577
0.491433
0.492545
0.491942
0.493466
0.491179
0.491304
0.490996
0.492442
0.490768
0.490771
0.499999
0.499998
0.499999
0.499997
0.499999
0.499999
0.5
0.499999
0.499998
0.499999
0.5
0.499999
0.499999
0.499999
0.5
0.499998
0.499999
0.5
0.491001
0.492103
0.484579
0.287395
0.496413
0.496822
0.496264
0.326379
0.390604
0.327334
0.0463736
0.499635
0.486469
0.49954
0.5
0.5
0.499999
0.5
0.5
0.5
0.5
0.5
0.5
0.499629
0.5
0.490371
0.5
0.497251
0.499352
0.499246
0.485869
0.488198
0.494933
0.487644
0.485144
0.498263
0.0652977
0.0719269
0.295391
0.478752
0.498252
0.0612192
0.146216
0.49917
0.499225
0.0703275
0.10987
0.469115
0.413123
0.001569
0.5
0.499232
0.5
0.49907
0.498907
0.0146964
0.5
0.0310684
0.295174
0.499614
0.499992
0.499999
0.499999
0.499999
0.155152
0.232259
0.5
0.499999
0.227567
0.5
0.499999
0.171595
0.499941
0.499886
0.5
0.0688552
0.499912
0.5
0.0557688
0.5
0.446407
0.5
0.5
0.5
0.5
0.5
0.5
0.476382
0.499967
0.499973
0.5
0.499478
0.5
0.499983
0.5
0.5
0.5
0.499783
0.5
0.5
0.460103
0.485399
0.5
0.5
0.5
0.496907
0.5
0.29437
0.499732
0.499665
0.469968
0.313023
0.5
0.499444
0.471268
0.30217
0.499296
0.5
0.5
0.471967
0.5
0.499209
0.49895
0.330046
0.499998
0.499667
0.5