/*--------------------------------*- C++ -*----------------------------------*\
  =========                 |
  \\      /  F ield         | OpenFOAM: The Open Source CFD Toolbox
   \\    /   O peration     | Website:  https://openfoam.org
    \\  /    A nd           | Version:  10
     \\/     M anipulation  |
\*---------------------------------------------------------------------------*/
FoamFile
{
    format      ascii;
    class       volScalarField;
    location    "11";
    object      eff_dif;
}
// * * * * * * * * * * * * * * * * * * * * * * * * * * * * * * * * * * * * * //

dimensions      [0 2 -1 0 0 0 0];

internalField   nonuniform List<scalar> 
75457
(
-0.0358851
-0.0327262
-0.0288625
-0.0263515
-0.0220418
-0.0233365
-0.031786
-0.0315414
-0.0209116
-0.01555
-0.0192672
-0.0209613
-0.0203661
-0.0181493
-0.00426249
-0.00467812
-0.00438111
-0.00456854
-0.00500429
-0.00453906
-0.00406206
-0.00469627
-0.00472842
-0.00499714
-0.00477788
-0.00508396
-0.00484025
-0.00120626
-0.00119678
-0.000772643
-0.000523128
-0.000676581
-0.000755096
-0.000955218
-0.000390569
-0.00130457
-0.00119474
-0.00140235
-0.00155931
-0.000595917
-0.000835903
-0.000597032
-0.00100233
-0.0105174
-0.0102966
-0.00967627
-0.00977996
-0.0101182
-0.00558516
-0.00607285
-0.00642189
-0.00588294
-0.00596363
-0.00607624
-0.00645814
-0.0065453
-0.00625654
-0.0064559
-0.00587392
-0.00610499
-0.00591374
-0.00585421
0.0302208
0.0304854
0.0302233
0.0305523
0.030781
0.0308088
0.0304643
0.0305033
0.0307672
0.0305574
0.0302964
0.0305466
0.0305353
0.0302231
0.0304251
-0.0101266
-0.010773
-0.00917143
-0.0111553
-0.0121688
-0.00725634
-0.0073934
-0.00940816
-0.0100434
-0.00959183
-0.00931153
-0.00775656
-0.00861632
-0.00742446
-0.00708704
-0.0083104
-0.0073055
-0.00747159
-0.00763639
-0.00766682
-0.00802123
-0.00761302
-0.00743486
-0.00863882
-0.00786022
0.0307753
0.0306641
0.0309263
0.0309426
0.0308082
0.0306585
0.0305784
0.0310302
0.0310325
0.030645
0.0306564
0.0213601
0.0220225
0.024491
0.024063
0.0214236
0.0230048
0.0230369
0.0225065
0.0228636
0.0245559
0.0243402
0.0248844
0.0254244
0.0241749
0.0236133
0.0224147
0.0248382
0.0238328
0.012876
0.0128385
0.0122563
0.013146
0.0127386
0.0142723
0.013955
0.013845
0.013834
0.00694559
0.00648654
0.00705071
0.00659537
0.00602992
0.00653918
0.00655962
0.00561521
-0.00806592
-0.00810784
-0.00750462
-0.0077044
-0.00809186
-0.00774845
-0.00745632
-0.00696666
-0.00542971
-0.00548139
-0.00701876
-0.00674386
-0.00627903
-0.00698018
-0.0058636
0.0154839
0.0170884
0.0173306
0.0166688
0.0170896
0.0133654
0.0147498
0.0163131
0.0153245
0.0162853
0.0136074
0.0122905
0.0128817
-0.0103904
-0.0108636
-0.0107347
-0.0109366
-0.0107127
-0.0108448
-0.0101577
-0.0108374
-0.0106983
-0.0109359
-0.0109197
-0.0107424
-0.0106645
-0.0108065
-0.00976191
-0.00845863
-0.0109398
-0.00831051
-0.00870206
-0.0102557
0.011281
0.0120774
0.0107249
0.0114816
0.00966112
0.0104849
0.0128626
0.0125844
0.0116516
0.00885029
0.00882685
-0.00830427
-0.00814697
-0.00853873
-0.00849178
-0.00845613
-0.00838334
-0.00821331
-0.0080398
-0.0076177
-0.00849793
-0.00825797
-0.00802363
-0.00838243
-0.00795424
0.00524019
0.00429617
0.00469832
0.00296911
0.00353788
0.00429193
0.00418498
0.00545103
0.00503045
0.00408255
0.00345301
0.00279104
0.00507772
0.00347525
-0.00752898
-0.00760934
-0.00721384
-0.00719526
-0.0075289
-0.00744983
-0.00761357
-0.00754983
-0.00775193
-0.00716849
-0.00740658
-0.00691996
-0.00759844
-0.0076527
-0.00739123
-0.00736821
-0.00753785
-0.0101672
-0.00993607
-0.00998472
-0.00987756
-0.0111904
-0.00973826
-0.00958841
-0.00895516
-0.0098493
-0.0102869
-0.00936086
-0.0100203
-0.0110827
-0.0111776
-0.0110234
-0.0110569
-0.0110586
-0.0113015
-0.0115729
-0.0112623
-0.0112628
-0.0115268
-0.01109
-0.0109327
-0.0111756
-0.00581134
-0.00559997
-0.0058703
-0.00533497
-0.0053746
-0.00523531
-0.00506117
-0.00498746
-0.00498955
-0.00543496
-0.00575739
-0.00563185
-0.00489718
-0.00532736
-0.00524929
-0.000390097
-0.00018605
-0.000203411
-0.000446103
-0.000162612
-0.000143957
-0.00056387
-0.000721071
-3.45645e-05
-2.4072e-05
0.000451582
0.00013558
8.16735e-05
0.000476898
0.00120274
0.00049944
0.000184128
0.00068522
0.000275193
0.000309777
-2.15711e-05
6.16257e-05
-0.00626996
-0.00728175
-0.00394595
-0.00460929
-0.00479744
-0.00602236
-0.00630035
-0.00610288
-0.00641287
-0.00522479
-0.00590324
-0.00797482
-0.00809893
-0.00827051
-0.00825318
-0.00817811
-0.00791332
-0.00797256
-0.00835188
-0.00852877
-0.00837022
-0.0085981
-0.00778291
-0.00808583
-0.00815584
-0.00836162
-0.00811453
-0.00821864
-0.0145342
-0.013325
-0.0128954
-0.01455
-0.0173887
-0.0171562
-0.0167883
-0.016033
-0.016021
-0.0151944
-0.0167299
-0.00355741
-0.00411852
-0.00475508
-0.00463816
-0.004244
-0.00439941
-0.00380433
-0.00460196
-0.00469528
-0.00414586
-0.00415585
-0.000187526
-7.17768e-05
-0.000266457
-0.000334463
-8.96374e-05
-9.14629e-05
-0.000375966
-0.000119038
-0.000439657
-0.000530995
-0.000543266
-0.00022249
-0.000402579
-0.000866352
-0.000791478
-0.00637654
-0.00476854
-0.00759594
-0.00617353
-0.00645136
-0.00763592
-0.00799155
-0.00761493
-0.00793369
-0.00796813
-0.00761375
-0.008378
0.0489771
0.0537708
0.0424017
0.0450318
0.0478254
0.0498925
0.0495592
0.0523995
0.044999
0.0494123
0.0476631
0.0486787
0.0447795
0.0492419
0.0435032
0.0450024
0.0469097
0.0419578
0.0337617
0.0333221
0.0340982
0.0348218
0.0357391
0.0367105
0.0339893
0.0346087
0.0370868
0.0405786
0.0373186
0.0375125
0.0391943
0.0250246
0.0222511
0.0197024
0.0213476
0.0259456
0.0226292
0.021188
0.0226062
0.0222131
0.0203174
0.0276332
0.027597
0.0206964
0.0222531
0.0197066
0.0259387
0.0280442
0.0280979
0.0240954
0.0240749
0.0247276
0.026058
-0.00950939
-0.00991996
-0.0101491
-0.0101541
-0.0102639
-0.00970152
-0.00976486
-0.00990066
-0.00998451
-0.0096394
-0.0100517
-0.00966738
-0.00981662
-0.00974566
-0.0098903
-0.00985234
-0.0242905
-0.026475
-0.0154144
-0.02286
-0.0132751
-0.0199411
-0.0169935
-0.0142494
-0.0136188
-0.0180851
-0.0308852
-0.0260664
-0.0185405
-0.0239059
-0.0131983
-0.0161694
0.0011489
0.00099258
0.00116127
0.00200135
0.00237554
0.00297693
0.000803036
0.000472881
0.00212681
0.00210158
0.00298546
0.00263947
0.00236337
0.00228339
0.00212631
0.00147456
0.000738874
0.00155013
0.0329052
0.0369517
0.0355076
0.0320997
0.0334194
0.0361746
0.0397084
0.0388222
0.0336812
0.0396818
0.0413651
0.0396183
0.0357316
0.0325158
0.0333198
0.0343572
0.026009
0.0253563
0.0258596
0.0256355
0.02479
0.0265726
0.0271505
0.0265345
0.025901
0.0268399
0.0262803
0.0254638
0.026316
0.0247381
0.0254212
0.0269523
0.0274315
0.0114579
0.0113107
0.0110155
0.0113811
0.0113597
0.0114171
0.0115253
0.0115992
0.0116234
0.0114802
0.011115
0.0111722
0.0116789
0.0113384
0.0114489
0.0107338
0.0107475
-0.00531101
-0.00615261
-0.0076249
-0.00671979
-0.0058401
-0.00590223
-0.00561607
-0.00561167
-0.00629211
-0.00586328
-0.00730997
-0.00746077
-0.00650984
-0.00506982
-0.00715343
-0.00628728
-0.00619994
-0.00690457
-0.00443564
-0.00447883
-0.00431858
-0.00427136
-0.00378878
-0.00402717
-0.00421669
-0.0042049
-0.00370959
-0.00387543
-0.00402074
-0.00367605
-0.0035856
-0.00400714
-0.00649485
-0.00610741
-0.00686029
-0.00768185
-0.00773157
-0.00710296
-0.00687906
-0.00680761
-0.00666256
-0.00760877
-0.0076646
-0.00750487
-0.00712912
-0.00655135
-0.00687973
-0.00761793
-0.00776327
-0.00791602
0.0203585
0.0160916
0.0169298
0.0237039
0.0200102
0.0141129
0.0170543
0.0172264
0.0136818
0.0220925
0.0172257
0.014317
-0.00856452
-0.0083399
-0.00826154
-0.00806318
-0.00834945
-0.00822938
-0.00705802
-0.00742126
-0.00844853
-0.00851219
-0.00839617
-0.00760273
-0.00758294
-0.00813723
-0.00835101
-0.00816725
-0.00524884
-0.00576465
-0.00482952
-0.00522887
-0.00639199
-0.00626516
-0.00636809
-0.00524715
-0.00500774
-0.00491346
-0.00491915
-0.00577988
-0.0062878
-0.00525711
-0.00485573
-0.00566794
0.00371245
0.00294836
0.00228149
0.00547978
0.0063701
0.00396721
0.00466831
0.00142691
0.0030054
0.00368405
0.00527622
0.00420229
0.00526289
0.00606877
0.00580132
0.00273658
0.00283386
0.00412466
0.00221481
-0.0030104
-0.00210601
-0.00295229
-0.00436968
-0.00349573
-0.00254637
-0.0041208
-0.00370145
-0.00301301
-0.00330662
-0.00295739
-0.00417837
-0.00310538
-0.00271891
-0.00200003
-0.00164381
-0.00165183
-0.00240739
-0.00193396
-0.00221238
-0.0019291
-0.00183969
-0.00243311
-0.00168654
-0.00214283
-0.00204005
-0.00263979
-0.00158658
-0.00166889
-0.00166444
-0.00151266
-0.00209855
-0.00485097
-0.0054703
-0.0045676
-0.00321557
-0.00367332
-0.0073281
-0.00480074
-0.00451557
-0.00450326
-0.00562734
-0.0070646
-0.00811104
-0.00842284
-0.00868836
-0.00826052
-0.0092138
-0.00959974
-0.00921329
-0.010296
-0.00756636
-0.00753691
-0.00967891
-0.0103474
-0.0102155
-0.00937887
-0.00919425
-0.0101878
-0.00948758
-0.0090937
-0.00960658
-0.00950089
-0.0088316
-0.0103552
-0.0104074
-0.0101703
-0.0103443
-0.0100886
-0.0102097
-0.0102827
-0.0101165
-0.00994861
-0.0100246
-0.0101963
-0.0100023
-0.0101142
-0.010052
-0.0101266
-0.0100425
-0.0101036
-0.00664223
-0.0070826
-0.00847254
-0.00812131
-0.00739504
-0.00796255
-0.00816924
-0.0078449
-0.00756567
-0.0081008
-0.00728993
-0.00433526
-0.00473017
-0.00325136
-0.00301277
-0.0039767
-0.00275213
-0.00310454
-0.00260138
-0.00386101
-0.00345894
-0.00327059
-0.00296076
-0.00351758
-0.00313967
-0.00294964
-0.00289437
-0.0032171
-0.00314689
-0.00258789
-0.00308687
-0.00287843
-0.00321533
-0.00318882
-0.00280695
-0.00281567
-0.00292256
-0.00260357
-0.00288023
-0.00271444
-0.00252677
-0.00277431
-0.00246238
-0.00270235
-0.00284132
-0.00255326
-0.00591756
-0.00618555
-0.00600837
-0.00600208
-0.0056417
-0.00500868
-0.00591646
-0.00484945
-0.00558043
-0.00436352
-0.00517667
-0.00558527
-0.0056742
-0.00535287
-0.00509289
-0.00641954
-0.00543671
-0.00496953
-0.0047633
-0.00470918
-0.00698304
-0.00711084
-0.00730033
-0.00729557
-0.00663135
-0.00668453
-0.00740028
-0.00725775
-0.00709284
-0.00626878
-0.00651426
-0.00649819
-0.00624588
-0.00665417
-0.00667755
-0.00694185
-0.00613256
-0.00628614
-0.00674234
-0.00693543
-0.00621279
-0.00637323
-0.00648519
-0.00743619
-0.00645649
-0.00703088
-0.00680689
-0.00795647
-0.00626982
-0.00615733
-0.00611188
-0.00683622
-0.0072633
-0.00668986
-0.00730948
-0.00649783
-0.00633731
-0.00690511
-0.00652349
-0.00657875
-0.00615365
-0.00749235
-0.00693165
-0.00774439
-0.00861831
-0.00812743
-0.00785774
-0.00738409
-0.00728059
-0.008216
-0.00835584
-0.00879054
-0.00761453
0.0214169
0.0219443
0.0229083
0.0219003
0.0227154
0.0214292
0.0224815
0.0213073
0.0218903
0.0228988
-0.00935998
-0.00916843
-0.00888029
-0.00892093
-0.00941539
-0.00941782
-0.00898292
-0.00916047
-0.00937084
-0.00884791
-0.00918992
-0.00905839
-0.00903363
-0.00936936
-0.0091004
-0.00932713
-0.0093896
-0.0102265
-0.00966541
-0.0105912
-0.0103599
-0.0100173
-0.0107086
-0.00955722
-0.0103484
-0.00948181
-0.00930978
-0.0103137
-0.0105512
-0.00935998
-0.0103508
-0.0105562
-0.0099819
-0.00965753
-0.010655
-0.00992014
-0.00994297
0.0108936
0.0112967
0.0119942
0.0114077
0.0110877
0.0122196
0.00879387
0.0103608
0.0105861
0.0102556
0.00955443
0.0116588
0.0111187
0.0116598
0.0107753
0.0103461
-0.0151564
-0.0162692
-0.0152084
-0.0146947
-0.0147096
-0.0125581
-0.0133784
-0.0142151
-0.0147664
-0.0151697
-0.0114407
-0.0128684
-0.014265
-0.0109205
-0.0119476
-0.0100938
-0.00982727
-0.00989821
-0.0108592
-0.0109317
-0.0116764
-0.010052
-0.00952563
-0.00929427
-0.0104408
0.0114036
0.0103791
0.0100118
0.0100948
0.0101384
0.00863087
0.00829331
0.00770413
0.00776397
0.00832694
0.00845509
0.00753075
0.00932093
0.00841233
0.0101393
0.010245
0.0082653
0.00939808
0.00899837
-0.00918233
-0.00913271
-0.00967789
-0.00900549
-0.01054
-0.00936777
-0.00892229
-0.00937276
-0.00962353
-0.00910628
-0.00904907
-0.00962386
-0.00996825
-0.0103983
-0.00992698
-0.00924668
-0.00912727
-0.00997234
-0.0098497
-0.00725195
-0.00817311
-0.00743053
-0.0074795
-0.00742289
-0.00757238
-0.0073602
-0.006911
-0.00798797
-0.00786734
-0.00783509
-0.00738126
-0.00771744
-0.00769112
-0.00796874
-0.00804674
0.0207895
0.0213703
0.0206994
0.020487
0.0217776
0.0226601
0.0223819
0.0214792
0.0215176
0.0223517
0.0225302
0.0216041
0.0224353
0.0229977
0.0236599
0.0231026
-0.0128097
-0.0147658
-0.0112209
-0.0112649
-0.0155594
-0.0182668
-0.00817694
-0.00926183
-0.011594
-0.0140604
-0.0111239
-0.0118689
-0.0134232
-0.018046
-0.0163723
-0.00969629
-0.014312
-0.0114944
-0.0147089
-0.0170831
0.0573297
0.0513754
0.0470405
0.0467056
0.0558065
0.0571047
0.0506114
0.0554194
0.0496
0.0515955
0.0491765
0.0496222
0.0464398
0.0463056
0.0520241
0.019694
0.0183731
0.0230107
0.0246533
0.0225007
0.0194579
0.0248402
0.0213975
0.0238324
0.0270987
0.0260159
0.0272578
0.0290084
0.0267999
-0.0152298
-0.0159684
-0.0155178
-0.0162734
-0.0143674
-0.0146345
-0.0130098
-0.0118681
-0.0142191
-0.0141614
-0.0123441
-0.011875
-0.0146524
-0.0129293
-0.0126057
-0.0132291
-0.00553011
-0.0052433
-0.00528916
-0.00546502
-0.00525568
-0.00555726
-0.00516555
-0.0055196
-0.00570549
-0.00505874
-0.00512466
-0.00507341
-0.00563227
-0.00546976
-0.00514963
-0.00534154
-0.0052831
-0.00560483
-0.00541244
-0.0104525
-0.0103716
-0.00994735
-0.0108519
-0.0109873
-0.010685
-0.0100937
-0.0109039
-0.0107998
-0.00934737
-0.00992858
-0.00976195
-0.0102037
-0.00986778
-0.0110487
-0.0106887
-0.00963696
-0.0100627
-0.00975174
-0.00988387
-0.00956354
-0.00962772
-0.0100547
-0.00948493
-0.00965041
0.029681
0.0288538
0.0289189
0.0293611
0.0295324
0.0291457
0.0289289
0.028961
0.0296733
0.0294716
0.0295296
0.0292799
0.0293549
0.0291342
0.029451
0.0295144
0.0295419
0.029337
0.0289858
0.0296088
-0.00746684
-0.00827396
-0.00740762
-0.00790558
-0.00739126
-0.00708026
-0.00723218
-0.00800293
-0.00701199
-0.00731218
-0.00750924
-0.00769751
-0.00456256
-0.00465333
-0.00426816
-0.00413405
-0.00395295
-0.00462978
-0.00463716
-0.00476261
-0.0045368
-0.00411814
-0.00410822
-0.00441609
-0.00444151
-0.00410622
-0.00424056
-0.00418034
-0.0043576
-0.00420962
-0.00317099
-0.00298877
-0.00325765
-0.00298302
-0.00313192
-0.00351009
-0.00358466
-0.00371042
-0.00376244
-0.00304136
-0.0034814
-0.00316334
-0.00381575
-0.00367428
-0.00331391
-0.00314981
-0.00381352
-0.00350267
-0.00308643
-0.00240986
-0.00255349
-0.0027033
-0.00193193
-0.00242995
-0.00215024
-0.00200204
-0.00292082
-0.00245569
-0.00300411
-0.00295689
-0.00213886
-0.00212729
-0.00230932
-0.00307559
-0.00302989
-0.00696268
-0.00667366
-0.00697072
-0.00668041
-0.00642215
-0.00618792
-0.00616043
-0.00725447
-0.00742999
-0.00979571
-0.00956547
-0.00957963
-0.00976126
-0.00982678
-0.00985246
-0.00967351
-0.00996579
-0.00966805
-0.00957331
-0.00981714
-0.00963298
-0.00444583
-0.004306
-0.00446922
-0.00447579
-0.00438234
-0.00458422
-0.00452256
-0.00473001
-0.00469363
-0.00449604
-0.00494812
-0.00490776
-0.00485757
-0.004956
-0.00476787
-0.00494439
0.0301322
0.0303474
0.0300643
0.0298077
0.0294605
0.0295414
0.0290588
0.0289998
0.029269
0.0298028
-0.00801683
-0.00780255
-0.00804526
-0.00781036
-0.00810042
-0.00798713
-0.00826437
-0.00823018
-0.00834201
-0.00836809
-0.00809147
-0.00794658
-0.00814015
-0.00849508
-0.00841619
-0.00818919
-0.00814529
-0.00812669
-0.00536978
-0.0056637
-0.00527985
-0.00535956
-0.00531334
-0.00528067
-0.00552015
-0.00531404
-0.00545215
-0.00587414
-0.00562336
-0.00569909
-0.00546396
-0.00564438
-0.00523108
-0.00532902
-0.00553382
-0.00533158
0.00793981
0.00731369
0.006716
0.00770515
0.0058646
0.00529814
0.00834665
0.0078107
0.00648224
0.00802157
0.00702937
0.00610586
0.00687331
0.00691087
0.0299404
0.0298377
0.0297185
0.029544
0.0299931
0.0295872
0.0294062
0.0294402
0.0297471
0.0295639
0.0297342
0.0298591
0.0294339
0.0293994
0.0292876
0.0293297
0.029709
0.0295035
0.0296496
0.0294181
0.0422719
0.040885
0.0341069
0.0372285
0.0267043
0.0310637
0.0165504
0.0322932
0.0323122
0.0296822
0.0353755
0.0255404
0.0371823
0.0422975
0.038138
0.0455917
0.0272829
0.0385007
0.0340235
-0.0101177
-0.0106018
-0.00698619
-0.00556756
-0.0116237
-0.0139584
-0.0132905
-0.0156981
-0.0066066
-0.00685478
-0.0176247
-0.0139514
-0.00858528
-0.0132233
-0.0147242
-0.00969945
-0.00998194
-0.0146629
-0.011865
-0.0117589
-0.00143303
-0.00201975
-0.0019593
-0.00205019
-0.00243885
-0.00163494
-0.0029303
-0.00225637
-0.00223004
-0.00219126
-0.00214979
-0.00202324
-0.00284483
-0.00195269
-0.00296265
-0.00280403
-0.00263827
-0.00261579
-0.00194059
-0.0135047
-0.0136323
-0.0146314
-0.0145954
-0.0151832
-0.0150251
-0.0133142
-0.0137695
-0.0144194
-0.0117977
-0.0138126
-0.0136667
-0.0134292
-0.0140893
-0.0139327
-0.0139517
0.0316054
0.0315562
0.031423
0.0314993
0.0317721
0.0317894
0.0316663
0.0316951
0.0315053
0.0313696
0.0318891
0.0316651
0.0318295
0.0318244
0.0314488
0.0313711
0.0315389
0.0317097
0.0318407
0.0314361
-0.000893681
-0.00104152
-0.000477648
-5.96992e-05
-0.0029912
-0.0030757
-0.00350469
-0.00436012
-0.00226932
-0.000877855
-0.000503955
-0.0029928
-0.00333766
-0.00386344
-0.00459255
-0.00447741
-0.00216228
-0.00397691
-0.00373028
-0.0026714
0.0317927
0.0316861
0.0317694
0.0318125
0.0318018
0.0318167
0.0317391
0.0318721
0.031935
0.0319403
0.0320066
0.0317182
0.0318875
0.0318519
0.0319644
0.0319464
0.0318337
-0.0055776
-0.0055148
-0.00561495
-0.00584775
-0.00580631
-0.0055235
-0.00532558
-0.00566304
-0.00573345
-0.00601609
-0.00534869
-0.00494658
0.0299007
0.0297154
0.0302633
0.0302649
0.0300228
0.0299666
0.0296313
0.029846
0.0300638
0.0302296
0.0302687
0.0298981
0.0297405
0.029858
0.0296537
0.0298577
0.0296546
0.0299181
0.0299843
0.0296439
0.0298863
0.0234902
0.0230508
0.023149
0.0235662
0.0236005
0.022762
0.0231485
0.0247987
0.0249675
0.0247516
0.0240605
0.0236982
0.0233341
0.023274
0.0232967
0.0239928
0.0238749
0.0238862
0.00858135
0.00883937
0.00892635
0.00850502
0.00876734
0.00947554
0.00912132
0.00916073
0.00890249
0.010065
0.00989684
0.0101429
0.00997316
0.0090404
0.00876842
0.0498673
0.0447942
0.0389695
0.0403944
0.0467346
0.0448107
0.0562617
0.0416403
0.048506
0.0434053
0.0558347
0.0556308
0.0513512
0.0446225
-0.00249935
-0.00214805
-0.00276298
-0.00333369
-0.00319001
-0.0034818
-0.00252854
-0.00269341
-0.00288482
-0.00260117
-0.00334528
-0.00291871
-0.00259344
-0.00211833
-0.00229478
-0.00280565
0.0254556
0.0234024
0.0250383
0.0232395
0.022906
0.0232932
0.0236179
0.0236722
0.0245253
0.0249297
0.0273819
0.0268721
0.0258948
0.0282031
0.0287897
0.0262096
0.027243
0.0310826
0.0310448
0.0306439
0.0307418
0.0308467
0.0308963
0.0311174
0.0311533
0.0306116
0.0307276
0.0310638
0.0310932
0.031048
0.0309286
0.0308839
0.0310505
0.0308576
-0.0119917
-0.00976524
-0.00988201
-0.0127416
-0.00881063
-0.0142299
-0.0193672
-0.0090485
-0.0116396
-0.0127868
-0.0117122
-0.0107826
-0.0115113
-0.00928853
-0.0172463
-0.0173245
-0.0145307
-0.015487
0.0182023
0.0178571
0.0194711
0.0191406
0.018439
0.0171272
0.0175355
0.0190915
0.0195713
0.0191733
0.0189291
0.0192327
0.0175553
0.0173033
0.016658
0.0184605
0.0173363
0.0179605
0.0169167
0.0184289
0.0177272
0.0174896
-0.00473808
-0.00500868
-0.00478213
-0.00444123
-0.00441035
-0.00449565
-0.00336756
-0.00384894
-0.00456284
-0.00522955
-0.00445656
-0.00492884
-0.00397302
-0.00409163
-0.00401256
-0.00384885
-0.00448311
-0.0050107
-0.00433723
-0.00441411
-0.00483803
-0.00469015
-0.00443284
-0.00472368
-0.00503097
-0.00483176
-0.0048993
-0.00418535
-0.00422913
-0.00412889
-0.00430062
-0.00427005
-0.00498012
-0.00494314
-0.00486885
-0.00459804
-0.00424015
-0.00467177
-0.00511315
-0.00497798
-0.0050398
-0.00519155
-0.00541317
-0.00545711
-0.00496721
-0.00532843
-0.00495822
-0.00511473
-0.00486188
-0.00532539
-0.00454378
-0.00485626
-0.00465422
-0.00537919
-0.00501196
-0.00466351
-0.0053755
-0.0085195
-0.00888185
-0.0086061
-0.0101796
-0.00752632
-0.00634532
-0.00950406
-0.00937432
-0.00444431
-0.00520169
-0.00301309
-0.00641385
-0.00419799
-0.00668787
-0.00617997
-0.00793328
-0.00767102
-0.00600965
-0.00567129
-0.00229752
-0.00437482
-0.00299796
0.00647323
0.00482627
0.00414838
0.00465052
0.00525565
0.0068614
0.00674496
0.00567436
0.00494934
0.00410391
0.00450839
0.00466032
0.00428996
0.00534482
0.0052091
0.00628213
0.00506609
0.00432486
0.00498337
-0.00802119
-0.00757728
-0.00776204
-0.00782913
-0.00796559
-0.00799711
-0.00818052
-0.00849097
-0.00797582
-0.00857384
-0.00807346
-0.00787513
-0.00792811
-0.00785343
-0.00791704
-0.00786719
-0.0079205
-0.00492608
-0.00510631
-0.00653025
-0.00604314
-0.00580567
-0.00607924
-0.00628555
-0.00598257
-0.00540396
-0.0061862
-0.00561334
-0.00621556
-0.00588289
-0.00596196
-0.00355511
-0.00414811
-0.00448203
-0.00470793
-0.00416281
-0.00445741
-0.0035152
-0.0045766
-0.00476983
-0.00505313
-0.00508229
-0.00350129
-0.00444864
-0.00470615
-0.00463358
-0.003751
-0.00460848
-0.000224294
-0.000499378
-0.000242351
-5.05532e-05
-0.000167174
-0.000279919
-0.000343323
-0.0003827
-6.78337e-05
-0.000247884
-0.000508284
-0.000471811
-0.000707045
-0.000653404
-0.000182576
-0.00034808
-0.000761839
-0.000672405
-0.000691548
-0.000632489
-0.000304253
-9.55404e-05
-0.000708537
-1.30665e-05
-0.000256907
-0.000280568
-0.000414497
-0.000617898
-0.000337962
-0.000254119
-0.000219155
1.69371e-05
-4.28037e-05
-0.000275522
-0.000552464
-0.000210217
-0.00025696
-0.000572565
-9.01559e-05
-0.000269435
-0.0107923
-0.0121663
-0.0151109
-0.0160321
-0.0156049
-0.0164677
-0.0115005
-0.0129239
-0.0137736
-0.00941616
-0.0116527
-0.0124261
-0.0143369
-0.0136086
-0.0129144
-0.0119229
-0.0114606
-0.000264171
-0.000262022
-0.000654475
0.000636751
-6.18544e-06
-0.000883777
-0.00114802
0.000698211
0.000413139
-0.000542228
-0.00954924
-0.00961781
-0.00979492
-0.010017
-0.0094239
-0.00944286
-0.00954016
-0.0099584
-0.00994218
-0.00974159
-0.00971894
-0.00947483
-0.00953354
-0.00928263
-0.00919788
-0.00948589
-0.00944894
-0.00956549
-0.00819596
-0.00814793
-0.00827785
-0.00788341
-0.00832427
-0.0080163
-0.00806496
-0.00799357
-0.00774227
-0.00784235
-0.00841583
-0.00849468
-0.00821179
-0.00058963
-0.000346566
-0.000760388
-0.000458351
-0.000866671
-0.00120333
-0.000882021
-0.000253091
-0.000115339
-0.000575584
-0.00100111
-0.000917747
-0.000166436
-0.000157481
-0.00916599
-0.00910698
-0.00939232
-0.00924146
-0.0090754
-0.00907514
-0.00928654
-0.00923117
-0.00923416
-0.00917125
-0.00916658
-0.00934682
-0.00913414
-0.00897889
-0.00949285
-0.0183761
-0.0176678
-0.0170464
-0.0171699
-0.0170335
-0.0158304
-0.0189052
-0.0181458
-0.0181333
-0.0186825
-0.0189605
-0.0187225
-0.0174298
-0.0172392
-0.0172604
-0.0178252
-0.0180249
-0.0184677
0.0306526
0.0306486
0.0309058
0.03025
0.0303648
0.0303262
0.0304348
0.0302547
0.0305768
0.0305538
-0.00837697
-0.00842538
-0.00840451
-0.00863271
-0.0083572
-0.00864141
-0.00833021
-0.00842183
-0.00822322
-0.00830299
-0.00832144
-0.00854042
-0.00860719
-0.0084343
-0.00865251
-0.00831289
-0.00842435
-0.00844549
-0.00823157
-0.00839616
-0.00844621
-0.00842904
-0.0050826
-0.00490438
-0.00513315
-0.00509554
-0.00449088
-0.00431561
-0.00480711
-0.00478142
-0.00486385
-0.0044624
-0.00415878
-0.00429647
-0.00472568
-0.00468023
-0.00454628
-0.00442986
-0.00452848
-0.00440508
0.0323226
0.0332898
0.0345598
0.0332548
0.0318238
0.0343072
0.0324888
0.0334339
0.0297449
0.0316059
0.0331791
0.0303607
0.0306916
0.0294475
0.0281688
0.0312771
0.0290823
0.0279485
0.0290225
0.0324787
0.0302997
0.029366
0.0267627
0.0320489
0.0328452
0.0342143
0.0336689
0.0380556
0.0372266
0.0345348
0.0371118
0.0303802
0.0296026
0.0379105
0.0388994
0.0355704
0.0382165
0.0316721
0.0317864
0.0318448
0.0316568
0.0317608
0.0316555
0.0318298
0.0317841
0.0316333
0.0317587
0.0315804
0.0316182
0.031835
0.0317753
0.0317771
0.031832
0.0312525
0.0270873
0.0266619
0.0290257
0.0301379
0.0319838
0.0299067
0.0299858
0.0263032
0.0256176
0.0303448
0.028153
0.0297328
0.0269914
0.0291066
0.0268326
0.026569
0.0278913
0.0284785
0.0273202
0.0280088
0.0291441
0.0289887
0.0282483
0.0275144
0.0291638
0.0295759
0.0290716
0.0237825
0.0233362
0.0255692
0.0269449
0.0150701
0.0140595
0.0241356
0.0239857
0.0147783
0.0169942
0.0195597
0.0194871
0.0211704
0.0186607
0.016224
0.0141171
0.0295184
0.028676
0.0290356
0.02955
0.0287512
0.030075
0.0296719
0.0288735
0.0288927
0.0317393
0.0313077
0.0309892
0.0304374
0.0293161
0.03045
0.0298862
0.0309478
0.0303334
0.0296772
0.0312284
0.00924035
0.0110413
0.00573701
0.00275199
0.00396817
0.00683807
0.0141984
0.0058576
0.00977568
0.00972852
0.00338591
0.00846632
0.0091738
0.0060374
0.00907018
0.0157362
0.0158073
0.01427
0.0122663
0.0106105
0.0196146
0.0167394
0.0167878
0.013963
0.0179242
0.0180489
0.0180335
0.0153731
0.0139227
0.0150176
0.0151483
0.0159062
0.0162371
0.0309946
0.0310382
0.0308552
0.0307497
0.0314076
0.031378
0.03096
0.0308022
0.0315567
0.0315676
0.0310141
0.0312967
0.0315496
0.0315174
0.0314154
-0.00970695
-0.00939273
-0.0097559
-0.00977907
-0.010231
-0.00907652
-0.00901131
-0.0108461
-0.0105165
0.0332701
0.0323967
0.0313856
0.0313293
0.0320716
0.0314457
0.0336815
0.0311392
0.034904
0.0334588
0.0312475
0.0331048
0.0337452
0.0341102
0.034574
0.0303552
0.0306618
0.0324432
0.0346148
0.0332846
0.0308493
0.0317267
0.00535928
0.00606837
0.00539404
0.00347154
0.00449553
0.00541053
0.00224629
0.00351066
0.00382101
0.00168181
0.00289063
0.000901341
0.00172152
0.000597936
0.000144816
0.000987639
0.00222901
0.00381212
-0.000164787
0.00268667
0.0298192
0.0281224
0.0328713
0.0283243
0.0302238
0.0366468
0.0338997
0.0300819
0.0338284
0.0294142
0.0318749
0.037766
0.035595
0.0363156
0.0397339
0.0330535
0.0323127
0.0305794
0.0350599
0.0290316
0.0322236
0.0299321
0.0338445
0.0382655
0.0391676
0.037281
-0.00884495
-0.00975006
-0.00952544
-0.00889437
-0.00919603
-0.00980031
-0.00930365
-0.00900088
-0.010281
-0.00905557
-0.00929483
-0.00963497
-0.00917684
-0.00875102
-0.00869802
-0.00919562
-0.0090254
-0.00961354
-0.00910353
-0.00865256
-0.00866378
-0.00877715
-0.00881601
-0.00926946
-0.00885693
-0.00922727
-0.00620645
-0.00594248
-0.00666021
-0.00715364
-0.00611232
-0.00634742
-0.00607183
-0.00508244
-0.00695264
-0.00436404
-0.00684573
-0.00566278
-0.00519568
-0.00584787
-0.00675864
-0.00674954
-0.00623489
-0.00593894
0.0115859
0.0110832
0.00762294
0.00963649
0.00826895
0.00630655
0.00300861
0.00771542
0.00799525
0.00556182
0.000649131
0.00441018
0.00583515
0.0271018
0.0278922
0.0282363
0.0268596
0.028527
0.0283035
0.0286903
0.0278179
0.0279528
0.026935
0.0271238
0.0290188
0.0283808
-0.0109679
-0.0107669
-0.0116628
-0.0110522
-0.0110937
-0.0116438
-0.0127813
-0.0123681
-0.0136554
-0.0117544
-0.011869
-0.011663
-0.0128058
-0.0106165
-0.00934581
-0.0092009
-0.00958087
-0.0098104
-0.0102753
-0.010313
-0.0105277
-0.00937325
-0.00953577
-0.00985328
-0.00946919
-0.00923205
-0.00950785
-0.00945664
-0.00897448
-0.00878281
-0.0090107
-0.00896477
-0.00911694
-0.00881309
-0.00866298
-0.00872297
-0.00865569
-0.00896233
-0.00900842
-0.00917015
-0.00907419
-0.00880119
-0.00877079
-0.00881434
-0.00862869
-0.00827558
-0.00823829
-0.00809218
-0.00820218
-0.00809689
-0.00807837
-0.00845652
-0.00816056
-0.00806242
-0.00831035
-0.00831532
-0.00825145
-0.00881998
-0.00554404
-0.00663655
-0.00690078
-0.00539272
-0.00606149
-0.00663966
-0.0072399
-0.00547281
-0.00533787
-0.00591263
-0.0060802
0.0245796
0.0261907
0.0252725
0.026408
0.0256522
0.026566
0.0256657
0.0248996
0.0260227
0.0251274
0.0265288
0.0242897
0.0258459
0.0344483
0.0373358
0.03964
0.04799
0.0457731
0.0342582
0.0514084
0.0505977
0.03767
0.043381
0.0358829
0.0381037
0.0463238
0.0502671
0.0530695
0.0414186
0.0432761
0.0399106
0.049691
0.0476551
0.0458473
0.0428441
0.0354128
0.0354215
0.0353885
0.0340972
0.0338085
0.0325293
0.0329387
0.0334693
0.0327202
0.0317328
0.0318228
0.0215062
0.0208374
0.0205273
0.0201173
0.0226429
0.0221317
0.0203909
0.0218325
0.0210133
0.0200811
0.0192773
0.0195561
0.0213175
0.0227408
0.0229229
0.0200973
0.0195374
0.021878
0.0189683
0.0331541
0.0334444
0.0333225
0.033316
0.034061
0.0338939
0.0336761
0.0334987
0.0334964
0.0338999
0.0346611
0.0343589
0.0347953
-0.00773484
-0.00356552
-0.00113148
-0.00506361
-0.00298999
0.000767619
0.000580714
0.00128024
0.00207186
-0.002516
-0.000163852
-0.00780478
-0.011108
-0.00254133
0.000823863
-0.0056971
-0.00335019
-0.0115463
-0.00662693
-0.0123075
-0.00525985
-0.00849078
-0.0084193
-0.00847542
-0.00857545
-0.00827426
-0.00839515
-0.00865132
-0.00890955
-0.0085023
-0.0083763
-0.00883595
-0.0086713
-0.00839986
-0.00843145
-0.0084087
-0.00852848
-0.00826818
-0.00844912
-0.0101451
-0.0114158
-0.00923343
-0.00889422
-0.0090691
-0.0105823
-0.00976447
-0.00963957
-0.00896299
-0.00966452
-0.011197
-0.0128795
-0.0109202
-0.0107227
-0.00875751
-0.00703107
-0.00874919
-0.00808993
-0.00743178
-0.00919662
-0.0107948
-0.00828353
-0.00697008
-0.00795046
-0.00708722
-0.00874992
-0.00768749
-0.00316282
-0.00358095
-0.00382428
-0.00371361
-0.00404423
-0.0124095
-0.0146002
-0.0130329
-0.0144566
-0.0188448
-0.0123657
-0.0162143
-0.0195813
-0.0189894
-0.0232942
-0.0245029
-0.021031
-0.0204374
-0.0211544
-0.0164662
-0.00182617
-0.00246751
-0.00212472
-0.00322029
-0.00309468
-0.00281738
-0.00319294
-0.00247868
-0.0030834
-0.0020526
-0.00166692
-0.00292267
-0.00281328
-0.00228897
-0.00115737
-0.0020087
-0.00299017
-0.00226114
0.0175603
0.0155986
0.0116646
0.0186418
0.00595559
-0.00448537
0.0178099
0.0080925
0.0168051
0.0108056
0.0122335
-0.0175799
-0.0093396
-0.0279071
0.00627161
0.00585465
0.00269512
-0.00679716
-7.55276e-05
0.00481985
-0.0183999
-0.0179665
-0.0180519
-0.0165349
-0.0169132
-0.0157755
-0.0156584
-0.0154595
-0.0168572
-0.0170669
-0.0150574
-0.0157236
-0.0162348
-0.0153263
-0.0117931
-0.0100537
-0.0108941
-0.0127009
-0.00819225
-0.00893501
-0.0104181
-0.0126883
-0.010167
-0.00982931
-0.0126378
-0.0114157
-0.00742835
-0.00816556
-0.00734904
-0.00797324
-0.00803257
-0.00835662
-0.00625619
-0.00731671
-0.00642906
-0.00913786
-0.0125577
-0.00786077
-0.0138371
-0.0120573
-0.0138964
-0.0133207
-0.00348229
-0.00406981
-0.00379588
-0.00589544
-0.00814193
-0.00872352
-0.0104124
-0.0106406
-0.00507291
-0.00808216
-0.00542691
-0.00560799
-0.00171425
-0.00338972
-0.00367659
-0.00340561
0.000144743
-0.000126971
-0.00112154
0.00193794
0.00198364
-0.0016129
-0.00392601
-0.0010576
6.85366e-05
0.00170719
0.00228019
-0.00232567
0.00011798
-0.000188077
-0.00170948
-0.0005055
0.0129298
0.0135479
0.0106431
0.0110605
0.0136033
0.0117667
0.0113005
0.0118896
0.0124126
0.0118784