/*--------------------------------*- C++ -*----------------------------------*\
  =========                 |
  \\      /  F ield         | OpenFOAM: The Open Source CFD Toolbox
   \\    /   O peration     | Website:  https://openfoam.org
    \\  /    A nd           | Version:  10
     \\/     M anipulation  |
\*---------------------------------------------------------------------------*/
FoamFile
{
    format      ascii;
    class       volScalarField;
    location    "11";
    object      k;
}
// * * * * * * * * * * * * * * * * * * * * * * * * * * * * * * * * * * * * * //

dimensions      [0 2 -2 0 0 0 0];

internalField   nonuniform List<scalar> 
75457
(
1.95298
2.21276
1.33997
0.703713
1.42938
1.5274
1.7282
1.62454
0.495295
0.489825
0.44893
1.26037
1.09196
0.529027
0.0858789
0.0718537
0.015962
0.0498657
0.060063
0.0123359
0.0289842
0.0213718
0.0802714
0.0819593
0.0490452
0.0996804
0.10351
0.10797
0.100106
0.140476
0.0893118
0.128071
0.128909
0.0547058
0.0473036
0.0675065
0.0542455
0.136024
0.122123
0.058831
0.0625213
0.0554794
0.0606805
0.0354877
0.0600727
0.0171753
0.0117106
0.0318584
0.593982
0.184718
0.373053
0.529566
1.23774
0.367852
0.215259
0.235365
0.964146
0.932551
0.799379
1.31493
1.08345
0.663499
0.452932
0.319372
0.0564355
0.329084
0.0875524
0.375586
0.482769
0.908171
0.463609
0.989416
0.362404
0.0291512
0.45245
0.12937
0.13751
2.37605
1.73193
1.29289
1.81706
1.71999
2.20723
1.5542
0.997952
0.987456
1.14939
1.2625
2.38024
1.62333
1.86292
1.40359
1.81
1.47437
0.909915
0.333221
0.361023
0.396178
1.72844
0.839331
0.800591
1.24198
0.118669
0.0036021
0.0401521
0.0557586
0.186974
0.0406972
1.07592
0.309169
0.374425
0.78199
0.877258
0.695109
0.0738783
0.834161
1.28555
0.458041
0.448252
1.54059
0.0188018
0.0721664
0.0767316
0.1858
0.443678
0.27025
0.864095
0.440194
0.847138
0.092703
0.169257
0.904132
0.274531
0.587803
0.519042
0.869797
0.360969
0.743827
0.711704
1.30691
0.134106
0.26498
0.460669
0.150863
0.188013
0.651458
0.588059
0.524785
1.2202
0.700693
1.80917
1.10765
0.281247
0.197307
0.610119
0.988141
0.645689
1.35193
0.412203
0.872912
1.26416
0.311121
0.997155
0.00522532
0.00544178
0.00562669
0.00546604
0.00558228
0.00503527
0.00500887
0.00519869
0.00555491
0.00511465
0.00532522
0.00516826
0.00505293
0.684347
0.728499
0.8778
1.11701
0.980511
1.1825
0.698101
0.910561
1.4312
0.525981
0.728216
0.855166
1.3512
2.81077
0.947547
0.571728
0.823611
0.918825
0.630704
1.35438
0.106697
0.247165
0.188554
0.142123
0.0927712
0.570696
0.717118
0.741255
0.472777
0.521242
0.894763
1.51972
1.47424
1.48526
1.19107
1.19531
1.5541
1.714
1.0637
1.02607
1.77422
1.14258
1.88222
1.84775
1.67242
0.914565
0.945455
1.29208
0.887589
0.955764
1.83363
0.891087
0.835778
0.958727
0.23238
0.221197
1.25574
0.658043
0.877782
0.76056
1.12826
0.402419
0.434405
0.463474
0.472508
1.02801
1.1992
0.893839
1.21303
0.948047
0.724022
0.872173
1.13468
1.57421
1.07806
1.23031
0.692853
1.10347
0.722396
0.762852
0.414078
0.227783
0.327774
0.0483233
0.123091
0.145703
0.428244
0.356032
0.934159
1.60637
1.1374
2.11596
1.46725
1.43416
1.65472
1.36933
0.833949
0.86622
0.915446
0.785995
0.990687
0.892309
1.18869
0.854184
1.06385
1.02923
0.972793
0.919813
0.77306
0.847495
0.68586
0.277897
0.315655
0.496077
0.412508
0.471536
0.730091
0.986037
1.06492
1.3112
1.10979
0.922224
0.934583
1.13958
0.957441
0.442148
1.14093
0.342308
0.340845
0.351361
0.337778
0.354467
0.424895
0.561252
0.425032
0.528053
0.409196
0.426118
0.679926
1.06626
1.06709
0.707262
0.693451
1.20504
0.593283
0.525595
0.556063
0.331251
0.245547
0.508552
0.439233
0.455136
0.976623
1.08981
0.594752
0.552444
1.10134
1.27349
0.538313
0.563504
1.17392
1.10141
1.85376
1.08825
1.06378
1.67508
0.725886
0.728475
0.771355
0.414196
0.840966
0.787301
1.01027
0.895052
0.759003
0.460258
0.69787
0.530029
1.08435
1.16965
1.29434
2.28336
0.861572
0.732676
1.37514
1.46582
1.4621
1.39068
0.366483
0.352587
0.429064
0.450947
0.670225
0.554512
1.0863
0.576218
0.632434
0.873079
1.52724
1.07846
0.977918
0.913439
0.991845
0.728133
0.700678
0.661592
0.916534
0.875296
1.23817
1.18917
0.866098
1.06883
0.335469
0.298865
0.770577
0.00401431
0.00420061
0.00375554
0.00373669
0.00417828
0.00428232
0.00397019
0.00427075
0.0040679
0.00435285
0.00378724
0.00370326
0.00378497
0.00387682
0.00377422
0.00382513
0.00360929
0.00370579
0.00391447
0.00393658
0.0038081
0.00357548
0.00353881
0.00352107
0.00390472
0.00383969
0.00373697
0.00353724
0.00348073
0.00368801
0.0037336
0.00387987
0.00391024
0.0036908
0.0037096
0.00382238
0.00378377
0.00374468
0.00378568
0.00388805
0.00388177
0.0037359
0.00381465
0.0037587
0.00376383
0.00372309
0.00378493
0.00388212
0.0040066
0.00374648
0.00386595
0.00386743
0.00380809
0.190555
0.0710264
0.074889
0.0684274
0.0725616
0.157398
0.0641746
0.0777535
0.0529059
0.184995
0.0532227
0.0527518
0.0560845
0.0600747
0.0456208
0.160925
1.49487
0.941159
0.841664
0.948818
0.428119
0.453351
0.765385
0.736779
0.425637
0.424351
1.90847
1.50152
1.49276
0.992233
0.489592
0.138386
0.0128494
0.0186396
0.0775252
0.0756773
0.0471699
0.0180724
0.0174476
0.0174826
0.0220621
0.0136645
0.044248
0.0733945
0.0713495
0.0809684
0.248883
0.090574
0.0560112
0.0550759
0.00399927
0.00405672
0.00406745
0.00399628
0.00392559
0.00413763
0.00415916
0.00379204
0.00393289
0.0041084
0.00410739
0.00441297
0.00414199
0.00397188
0.00396911
0.00400626
0.0049137
0.00469634
0.00497615
0.00472467
0.00453255
0.00502783
0.00542572
0.00511386
0.00496229
0.00511563
0.00505211
0.00488052
0.00511762
0.00487301
0.00496761
0.00539056
0.00541228
0.00444319
0.00475565
0.00451258
0.00473586
0.00465423
0.00454119
0.00349097
0.00710384
0.00427888
0.00457078
0.00403238
0.00447206
0.00428489
0.00445712
0.0042256
0.00428285
0.00354171
0.447015
0.384819
0.415733
0.482215
0.363924
0.488456
0.499101
0.542203
0.39436
0.402641
0.402817
0.490816
0.634518
0.471795
0.568093
0.389836
0.526832
0.577413
0.0485555
0.050195
0.0607705
0.0821255
0.0312033
0.095138
0.0534114
0.0551525
0.0584201
0.114238
0.065575
0.0623
0.0620713
0.0356338
0.129639
0.118521
0.183206
0.113281
0.19537
0.192319
0.196446
0.126304
0.113184
0.202496
0.204571
0.198511
0.127643
0.0888011
0.0869786
0.169146
0.121185
0.166093
0.00391187
0.00393243
0.00396002
0.00441989
0.00469797
0.00395923
0.0038268
0.00433472
0.00418349
0.00422999
0.00364296
0.00465474
0.353374
0.224543
0.463951
0.17326
0.41348
0.313804
0.344108
0.349418
0.412423
0.100614
0.0636941
0.0773529
0.0823535
0.0669413
0.0760246
0.0807172
0.012745
0.0497604
0.00965164
0.0395702
0.117635
0.0980914
0.155678
0.0873882
0.0772074
0.0436798
0.0300805
0.0148633
0.11385
0.0303003
0.0407433
0.0440737
0.00575494
0.00426491
0.0399794
0.0087414
0.00178675
0.0564314
0.0424596
0.0112704
0.000220943
0.00215386
0.000851621
0.00201786
0.00333365
0.00292435
0.00392295
0.0563433
0.0510828
0.051171
0.0152386
0.130253
0.103931
0.0690215
0.185718
0.0987761
0.146988
0.113118
0.0574194
0.0986561
0.0552019
0.164596
0.131793
0.110372
0.112352
0.29957
0.307285
0.272664
0.286157
0.274789
0.279785
0.202704
0.22832
0.284835
0.185985
0.193556
0.307728
0.220283
0.195262
0.214138
0.18654
0.189553
0.206237
0.202093
0.424427
0.476517
0.0277024
0.0878646
0.326923
0.174873
0.0384395
0.0725059
0.556027
0.369291
1.06024
1.02645
1.16338
1.2118
1.18777
1.25023
1.15291
1.19247
0.997269
0.997411
1.24708
1.43853
1.46535
1.33422
1.40915
1.34058
1.19659
1.07563
1.24918
1.16965
1.22163
0.0361983
0.0271445
0.0872605
0.0614198
0.0706671
0.0304395
0.0537828
0.0530928
0.0509757
0.163451
0.208996
0.269372
0.0262778
0.208419
0.376296
0.157839
0.267031
0.0126694
0.0908659
0.167804
0.385423
0.0663695
0.0953725
0.466435
0.362936
0.0992694
0.364646
0.135989
0.850889
0.86394
0.85185
1.00908
0.957077
1.0596
1.1985
1.09843
1.06953
0.996641
1.22526
1.08615
1.13402
0.0524932
0.06353
0.0175053
0.0219591
0.0198518
0.0175706
0.0296424
0.0362508
0.114171
0.0407037
0.0697539
0.0770911
0.0200801
0.0211063
0.076396
0.038312
0.0725886
0.0700331
0.0515777
0.0964787
0.116245
0.0433165
0.0650557
0.0225654
0.0983633
0.0303548
0.0238679
0.121713
0.109433
0.0189814
0.0715627
0.0921109
0.0732943
0.0678781
0.115613
0.0286701
0.0488997
0.167885
0.0953831
0.0415333
0.00529868
0.0128371
0.103613
0.1972
0.0443476
0.0485123
0.121714
0.171255
0.0459422
0.049387
0.0775922
0.0516258
0.052689
0.105514
0.115898
0.165822
0.0569594
0.0554886
0.0814436
0.173252
0.0576041
0.0460735
0.0857311
0.0438154
0.221657
0.25003
0.016437
0.029674
0.0476209
0.0680735
0.0280106
0.03581
0.0764292
0.181603
0.27271
0.198975
0.0402631
0.0551761
0.0293737
0.117032
0.06927
0.0263764
0.0220971
0.0221818
0.0256894
0.0269931
0.0218149
0.018856
0.0170083
0.01671
0.0196715
0.0204614
0.0161072
0.0198648
0.0223915
0.00381534
0.00376313
0.00390914
0.00391114
0.00393798
0.00385872
0.00402891
0.00391474
0.00422425
0.00433768
0.126513
0.0849431
0.13631
0.1842
0.0570853
0.0508904
0.172843
0.253919
0.0701403
0.146118
0.14034
0.14307
0.174271
0.048734
0.167598
0.140078
0.0330321
0.618802
0.672941
0.642615
1.08215
0.980538
0.772521
0.957583
0.898979
0.939346
1.01975
0.58549
0.582548
0.717629
0.645046
0.885107
0.921876
0.904842
0.617727
0.65938
0.688695
0.00244275
0.0037172
0.00370116
0.00220578
0.00488854
0.0286883
0.0329902
0.00544846
0.00377973
0.00338892
0.0312239
0.0393299
0.00201109
0.0178432
0.0240741
0.0457828
1.85511
2.10856
2.40357
2.2544
1.66189
2.07606
1.67711
2.29819
2.68975
2.4331
1.80916
1.93335
2.2302
0.112991
0.165632
0.142428
0.0847678
0.0760717
0.0871954
0.148897
0.12693
0.0965904
0.0928647
0.0542586
0.0961066
0.0409448
0.117016
0.0943383
0.0539434
0.121602
0.109353
0.0495479
0.0453284
0.0435229
0.0529404
0.00120584
0.000973734
0.00261306
0.00158193
0.00151745
0.0259684
0.104992
0.00394423
0.0373921
0.222248
0.25356
0.131749
0.121903
0.150162
0.0403098
0.142694
0.172398
0.130074
0.0482416
0.047277
0.122362
0.0218472
0.0611207
0.0535793
0.0416273
0.0413045
0.0639737
0.0387205
0.843675
0.944613
1.08318
1.0038
0.931568
0.943158
0.987772
0.955561
1.11839
1.01709
1.09147
1.10579
1.12347
1.16379
1.08758
1.10595
0.0705025
0.16388
0.131808
0.0745119
0.0103781
0.0201385
0.0262803
0.0114745
0.0105034
0.00986886
0.0951682
0.0660846
0.0184382
0.00682683
0.0288552
0.0223332
1.19775
1.63657
1.18269
1.48431
1.3292
1.83302
0.490116
0.586689
0.464425
0.496948
0.510031
0.697869
1.35162
1.78892
1.25237
0.804028
1.00711
1.01661
0.705293
1.61479
0.0133832
0.00924266
0.00738571
0.00651221
0.0075807
0.00592457
0.00656216
0.00669589
0.00663369
0.0136561
0.0165999
0.00889971
0.00871251
0.00589335
0.0154979
0.0629921
0.0738196
0.123277
0.168518
0.233308
0.232795
0.296808
0.118085
0.403256
0.534457
0.459599
0.22886
0.613244
0.620062
0.0265289
0.0465809
0.0195478
0.0245511
0.0217939
0.033599
0.0133869
0.00725646
0.0350764
0.00770337
0.0167669
0.00704011
0.0109238
0.0063769
0.00550527
0.0060218
0.0738553
0.0800923
0.062995
0.063643
0.221681
0.2289
0.0414987
0.119668
0.115405
0.0512015
0.218867
0.173399
0.263923
0.164498
0.175662
0.237063
0.242859
0.281854
0.283282
0.0125399
0.0542962
0.0250567
0.0266689
0.0142901
0.122697
0.0358069
0.0572107
0.0724652
0.052939
0.0129508
0.0168201
0.0217623
0.0159078
0.0790508
0.0627831
0.0466222
0.111498
0.0766211
0.0928988
0.0378964
0.0572711
0.117403
0.0728696
0.0615343
0.0159825
0.0118886
0.0105319
0.078316
0.00443761
0.00649536
0.0254604
0.0229902
0.0123756
0.0110798
0.0261069
0.0289154
0.0130436
0.0250036
0.00907313
0.00730563
0.00734157
0.00811527
0.0308448
0.00854002
0.0231546
0.0208029
0.016615
0.0311785
0.0244107
0.0250742
0.0617487
0.023138
0.0652973
0.0718761
0.0559642
0.0396387
0.523733
1.1423
1.66536
0.881038
1.28702
0.642796
0.798395
1.21078
1.40324
0.471325
0.942092
1.10982
1.61115
0.634635
1.09672
0.304515
0.811234
0.454436
0.403384
0.729306
0.867359
0.667654
0.394519
0.351555
0.346859
1.21893
1.22583
1.2294
1.37567
0.34228
0.351853
0.338523
0.306767
0.332821
0.614252
0.639699
0.557411
0.0416359
0.084281
0.0237813
0.0426046
0.026926
0.0189425
0.0126086
0.0292088
0.0173325
0.0162447
0.0175803
0.0163102
0.0160407
0.0161919
0.0160592
0.0122926
0.8289
0.870348
0.833261
0.85555
0.743306
0.768782
0.852626
0.697092
0.678813
0.855397
0.795183
0.915899
0.203402
1.18477
1.35656
0.975688
1.13681
0.289277
0.0701624
0.93371
0.0630581
0.974616
1.26054
0.394682
0.757258
0.289462
1.12457
1.44771
1.06091
0.12134
0.343647
0.435191
1.59912
0.356069
0.731201
0.816927
1.34633
0.384477
0.578361
0.566407
1.08166
0.318721
0.481036
1.55118
0.360586
0.722375
0.384856
0.929772
1.38764
0.753472
0.449053
1.09997
1.21426
0.370705
0.2293
0.868494
0.23051
0.83147
1.37022
0.828615
0.220967
0.264763
1.2625
0.833632
0.271857
0.236262
0.327643
0.252595
0.1084
0.170617
0.135468
0.266169
0.27995
0.0714594
0.0859004
0.0906103
0.215487
0.324592
0.136809
0.167649
0.0869274
0.22338
0.240749
0.0835912
0.0788058
0.0444792
0.0372197
0.0404418
0.0462693
0.120975
0.0685818
0.0447399
0.0678563
0.0472422
0.414803
0.704655
0.284231
0.0108645
0.0104621
0.0100542
0.0103651
0.0111659
0.00933869
0.0335359
0.0391601
0.0611902
0.0313793
0.00161192
0.0128887
0.014157
0.00849371
0.0274722
0.0265374
0.0782935
0.0303769
0.00657949
0.00738594
0.737266
0.749245
0.768113
0.635275
0.927983
0.920954
0.93557
0.775042
0.564043
0.687123
0.74182
0.732014
0.700132
0.755925
0.619236
0.693727
0.583657
0.565945
0.572307
0.0291036
0.0135942
0.0199088
0.0155707
0.535026
0.850172
0.233575
0.390636
0.0589471
0.0227709
0.390619
0.0815378
0.0299657
0.226873
0.667605
0.242888
0.137172
0.334538
0.142275
0.345298
0.122873
0.114661
0.207435
0.127108
0.19802
0.812127
1.02954
0.518719
0.530424
0.399367
0.296872
0.20203
0.340014
0.279117
0.619172
0.267378
0.173255
0.155007
0.269177
1.07967
1.16815
1.29659
1.27718
1.14273
1.28157
1.0844
1.17726
1.15732
0.985718
0.921174
1.16939
1.03795
0.98965
1.14889
1.1356
0.02353
0.022243
0.024753
0.0299172
0.030388
0.0269079
0.05037
0.0418813
0.0448308
0.0276916
0.0314437
0.0300564
0.0454839
0.0351457
0.035801
0.0345142
0.0417242
0.0391458
0.0394249
0.0304048
0.728337
1.00574
0.601279
1.01186
0.461039
0.524011
0.186055
0.326397
1.11985
0.655888
1.13303
0.940102
0.243124
0.233518
1.15007
0.840568
1.12701
0.734517
1.41779
0.483598
0.0219354
0.0445871
0.0551437
0.0549549
0.0372831
0.0281722
0.0250188
0.0391214
0.0490282
0.0417588
0.0426097
0.0380392
0.0658481
0.0316423
0.0840506
0.0765718
0.0784641
0.501196
1.06844
0.972054
1.8457
0.548327
0.620246
0.792579
0.851288
2.81721
0.809113
0.488382
1.56173
0.0119942
0.0104989
0.00903039
0.00412776
0.0114664
0.00835102
0.00770403
0.00524705
0.00496688
0.0136208
0.0088494
0.00476933
0.0570317
0.000277019
0.0196557
0.00104313
0.0309833
0.0974961
0.00111205
0.0563878
0.080689
0.164682
0.148484
0.00686528
0.0112025
0.247664
0.175865
0.263418
0.00971054
0.0213051
0.0350164
0.00781803
0.0171284
0.0201235
0.00773452
0.0710604
0.0207787
0.0304049
0.00983584
0.0545914
0.152043
0.0416374
0.0634439
0.0956762
0.362302
0.00590606
0.01648
0.265092
0.462853
0.0412932
0.0102127
0.0971824
0.242248
0.0660961
0.242232
0.246605
0.200898
0.106151
0.143199
0.216257
0.154107
0.152862
0.0798496
0.0221753
0.123971
0.0679481
0.0630648
0.0212562
0.0138065
0.0220902
0.0275029
0.0506917
0.00182738
0.00378432
0.000517983
0.00260985
0.0701917
0.0691575
0.00861203
0.000976654
0.00474503
0.0358041
0.0713739
0.0705931
0.0120832
0.00304316
0.00517898
0.133965
0.076675
0.511779
0.359069
0.124805
0.485667
0.328463
0.219411
0.104694
0.00976877
0.00127385
0.0160175
0.0532646
0.00502487
0.0209684
0.0213591
0.00741288
0.0269111
0.0188759
0.0204815
0.0246595
0.0248887
0.0106159
0.0110145
0.022773
0.0274558
0.025771
0.0207328
0.0176634
0.0261285
0.0200769
0.117157
0.0742411
0.0651372
0.17162
0.0697693
0.570152
1.10489
0.100493
0.244347
0.322975
0.228453
0.359583
0.30887
0.136106
0.744745
0.906216
1.20724
1.022
0.499525
0.388174
0.229338
0.0672573
0.0841365
0.381798
0.347428
0.154214
0.148315
0.145274
0.0817634
0.100786
0.156815
0.095443
0.0820737
0.123626
0.0719261
0.0467996
0.128055
0.194394
0.12514
0.122769
0.376592
0.393966
0.393862
0.396593
0.390746
0.382532
0.384433
0.393807
0.406176
0.380637
0.358444
0.396447
0.489479
0.466214
0.398383
0.382843
0.481309
0.370528
0.411632
0.514658
0.483395
0.409508
0.924342
0.739345
0.570682
0.79047
1.17651
0.725343
0.43258
0.815892
0.435403
0.755894
0.791983
1.51294
1.58667
0.869575
1.43588
1.69319
1.0949
1.55369
1.07525
0.727413
0.497176
0.357728
1.40642
0.995385
1.01918
0.196464
0.33557
1.20773
0.269916
0.998154
0.881582
0.249632
0.224984
0.19083
0.799339
0.986323
0.997305
0.98278
0.943144
0.987817
0.994448
0.95109
1.01415
0.974075
0.973032
0.99254
0.922864
0.834685
0.850287
0.796175
1.02412
0.962291
0.948901
0.841292
0.886701
0.969556
0.879214
0.635044
0.208442
0.235408
0.265554
0.733287
0.543481
0.958042
0.648759
0.562832
0.212805
0.432417
0.754653
0.540654
1.14503
1.0727
0.433205
0.46374
0.508566
1.47474
0.900877
0.949577
0.646464
0.400973
0.972605
1.07981
0.462832
0.344319
0.255927
0.946394
0.80947
1.03354
1.32094
0.602166
0.89118
0.894976
0.262753
0.659133
0.726716
0.286656
0.280659
0.996806
0.796005
0.81431
1.14803
0.819667
0.859105
0.306456
0.2829
0.662233
0.311171
0.474915
0.491895
0.427116
0.482149
0.436843
0.378594
0.389831
0.462624
0.347571
0.329619
0.320968
0.315174
0.346478
0.277743
0.285901
0.316857
0.318119
0.0775026
0.0885436
0.0918328
0.0906913
0.0893866
0.100545
0.0850837
0.0996207
0.0774688
0.0767106
0.0796429
0.100927
0.0819525
0.0955836
0.086662
0.0929016
0.0853435
0.0831403
0.0867754
0.116255
0.0999771
0.0874658
0.0810558
0.060492
0.0540602
0.0547805
0.044317
0.0181691
0.012564
0.0405627
0.0367104
0.00950586
0.00606007
0.0226262
0.0209257
0.0041336
0.0202108
0.0113475
0.0155372
0.0173126
1.60631
1.21016
1.2104
1.35394
1.15613
1.33204
2.00304
1.15588
1.19856
1.98287
1.205
1.08406
1.23821
1.15938
2.99388
1.39527
2.20134
0.122801
0.0211638
0.136275
0.675914
0.543754
0.0272373
0.0900139
0.0807522
0.0115538
0.26195
0.394697
0.683941
0.141063
0.133762
0.467464
0.675353
0.0805792
0.089751
0.0915377
0.0908736
0.134002
0.19305
0.103193
0.927267
0.748852
0.146587
0.137835
0.28404
0.486355
0.783801
0.521446
0.615997
0.630529
0.779349
1.23268
1.63827
1.04256
1.50358
0.325527
0.64065
0.292271
0.0374886
0.0324833
0.0385352
0.0314519
0.0159428
0.0338242
0.0267409
0.0238709
0.0305891
0.036391
0.0317331
0.0295289
0.0241658
0.0297386
0.144107
0.169835
0.0976474
0.107422
0.231814
0.0915222
0.105368
0.247325
0.351948
0.27352
0.414119
0.178515
0.16051
0.248789
0.0719634
0.540037
0.684955
0.522948
0.845135
1.18326
1.04697
1.23291
1.39864
0.726872
0.609071
1.18152
1.23452
1.06497
1.34204
1.24461
1.19248
1.24524
1.24874
0.0294502
0.041072
0.0249031
0.0242736
0.0273168
0.0239135
0.0282342
0.0222395
0.0220761
0.0174722
0.93093
0.917467
0.666078
1.12696
0.23456
0.194168
0.143763
0.291979
0.531798
0.65142
0.904733
0.932916
0.769155
0.174788
0.193482
0.0672815
0.593006
0.822008
0.179748
0.186413
0.157288
0.187791
0.672282
0.536957
0.552123
0.467253
0.649551
0.672733
0.436893
0.75711
0.663648
0.67026
0.619909
0.679707
0.373093
0.708309
0.665703
0.453386
0.354895
0.645544
0.0069623
0.0068537
0.00651636
0.00699029
0.00662986
0.00633081
0.00670097
0.00656772
0.00614533
0.00644978
0.00627202
0.00653208
0.00675182
0.0065445
0.00628391
0.00601686
0.00612519
0.00591626
0.00626703
0.950276
1.03146
0.739463
0.883599
0.736094
0.736944
0.83057
0.650918
0.711869
0.651778
0.925474
1.00689
1.00695
0.89002
0.752211
0.725487
0.855611
0.924437
0.0277364
0.0289378
0.0242715
0.0220782
0.0370019
0.0310568
0.0358723
0.0302548
0.0280225
0.0471973
0.0354746
0.0368788
0.037008
0.0444463
0.0597937
0.0571487
0.00401573
0.00411896
0.00410888
0.00403442
0.0040675
0.00400855
0.00399244
0.00394902
0.00397539
0.00396779
0.00397745
0.00392951
0.00398705
0.00460186
0.00456573
0.00468433
0.0046709
0.00459909
0.0044727
0.00496054
0.00471895
0.00508321
0.00475999
0.00487914
0.00486525
0.00479935
0.00494783
0.00463838
0.0042724
0.00482149
0.00405306
0.0044641
0.00466716
0.00171217
0.00407633
0.0042772
0.00446027
0.00441899
0.00455751
0.00372316
0.00430495
0.00425614
0.00424284
0.00351421
0.00883051
0.00882518
0.00860995
0.00800836
0.00813951
0.00846625
0.00787846
0.00791533
0.00823162
0.0083129
0.00998219
0.0098237
0.00840095
0.00801982
0.00826748
0.00832113
0.00976657
0.00867476
0.00888198
0.00869375
0.690983
0.678023
0.617504
0.403023
0.542937
0.481963
0.685713
0.565045
0.649329
0.314865
0.34249
0.609165
0.48529
0.575751
0.664028
0.983105
0.677407
0.768856
0.848111
0.914703
1.05839
0.802261
0.888477
0.942174
0.986716
1.08942
1.24396
1.03242
0.492343
0.45124
0.520985
1.04108
1.03954
0.0116713
0.0108924
0.010928
0.0096078
0.0124174
0.0110855
0.00963109
0.0095003
0.0102604
0.0109189
0.00879871
0.00871857
0.00858152
0.0092384
0.00975169
0.290636
0.183313
0.158371
0.149058
0.330161
0.161333
0.243731
0.322847
0.377603
0.00809513
0.00851044
0.00749287
0.00751433
0.00817681
0.00736651
0.00728014
0.00771814
0.00703423
0.00679564
0.00684789
0.00668265
0.00703039
0.00786636
0.00734896
0.00686008
0.00691853
0.00715501
0.00782134
0.0081879
0.00697405
0.00717529
0.00272828
0.00390429
0.00242645
0.0028457
0.00394884
0.00745645
0.00327419
0.00240653
0.00213185
0.00261672
0.00228145
0.00279184
0.00319524
0.00171461
0.00240933
0.00291365
0.00279423
0.00563034
0.00318389
0.00830002
0.00409075
0.00400323
0.0038264
0.00419397
0.00480608
0.00414344
0.00441328
0.0046631
0.00429399
0.00401034
0.00385862
0.00372677
0.00376106
0.00428123
0.00418795
0.0045822
0.00443621
0.00439207
0.00409993
0.00429227
0.00405758
0.00462957
0.00376657
0.00405523
0.00429758
0.00370813
0.0181844
0.0406105
0.0338577
0.0254844
0.00982332
0.0202121
0.00224973
0.00248524
0.0307256
0.00919105
0.0330117
0.0212007
0.0172524
0.00231911
0.00443304
0.0126255
0.00459499
0.00612035
0.00177515
0.0043878
0.00502817
0.00620724
0.00455152
0.0118832
0.00493359
0.00620296
0.00597008
0.00585859
0.00572673
0.00557264
0.00791663
0.0060583
0.00648682
0.0192133
0.00909136
0.0117349
0.0156462
0.0082717
0.0108257
0.0101528
0.0100155
0.00749972
0.00800576
0.00830826
0.00375019
0.00382363
0.00432595
0.00375183
0.00368335
0.00464002
0.00399039
0.00369865
0.00364186
0.00381351
0.00461769
0.00370287
0.0034953
0.00547844
0.00600135
0.00559891
0.0050775
0.00559526
0.00597653
0.0064179
0.00578205
0.00554579
0.00558009
0.00550084
0.00601361
0.00569604
0.289716
0.197909
0.246221
0.286573
0.233985
0.200438
0.229815
0.247463
0.255113
0.333104
0.360323
0.311289
0.3297
0.0160819
0.0103027
0.0117052
0.0103771
0.0100067
0.0160156
0.00835465
0.0171844
0.0102286
0.00942508
0.00982537
0.0080401
0.00604775
0.00558063
0.00930747
0.0161216
0.0101905
0.015559
0.0162062
0.024761
0.00975153
0.00664459
0.0366293
0.0311357
0.077893
0.0196977
0.0350112
0.0185107
0.0121306
0.0299104
0.0158032
0.0161938
0.0214316
0.0133922
0.0199502
0.0139045
0.0301935
0.0163173
0.00997623
0.010744
0.0267245
0.0144617
0.0116513
0.0145045
0.0178
0.969979
1.05696
1.00692
0.788804
0.987267
0.922615
1.03609
0.960391
0.954054
1.03868
1.00318
0.00397881
0.00386004
0.00411686
0.00428497
0.00442025
0.00406107
0.00426517
0.00411335
0.0042968
0.00430703
0.00407451
0.00409506
0.00417725
0.00235053
0.0080886
0.00241788
0.0401471
0.0031209
0.0060835
0.00453874
0.00456252
0.00586097
0.00766995
0.0045104
0.00547959
0.00540071
0.00495383
0.0108577
0.00418026
0.00523214
0.00502271
0.00860996
0.00443404
0.00502432
0.00467084
0.00357023
0.00382111
0.00306795
0.00209619
0.00462073
0.00336867
0.00346442
0.00460925
0.00350908
0.00377115
0.00397608
0.00379575
0.00386583
0.00348037
0.00332703
0.00379009
0.00384713
0.0039694
0.00392823
0.00425071
0.00419348
0.0040313
0.00392983
0.00395518
0.0040064
0.00401381
0.00395977
0.00450841
0.00411457
0.00411374
0.0158827
0.0146072
0.0185486
0.0129947
0.0132511
0.0171457
0.0186983
0.0151663
0.0173654
0.016105
0.0132953
0.0174581
0.0142772
0.00113965
0.00492937
0.00442851
0.00269323
0.00280858
0.00350904
0.00336091
0.00402105
0.00373646
0.00358747
0.00357657
0.00186667
0.000168643
0.00347381
0.00392057
0.00333429
0.0044324
0.00311778
0.00723956
0.0102015
0.00246402
0.0100315
0.0141902
0.00997292
0.0113525
0.0190568
0.016486
0.0133898
0.0245132
0.0261876
0.0198878
0.0256434
0.0312669
0.0189715
0.0207799
0.0231408
0.0265918
0.0195878
0.0260746
0.206201
0.759407
0.194151
0.306085
0.239639
0.509172
0.0557805
0.0720546
0.531087
0.0591453
0.244212
0.791477
0.304024
0.177455
0.2718
0.175389
0.0361092
0.225527
0.301751
0.0736064
0.410368
0.252165
0.0951434
0.0391479
0.212644
0.346296
0.369676
0.00777298
0.0206476
0.0213778
0.0019156
0.0084914
0.677328
0.00966339
0.556558
0.206689
1.12118
0.109605
1.13277
2.24785
1.78552
0.973889
1.91413
2.23428
0.882857
1.60642
0.331372
1.325
1.00835
0.557045
0.758346
0.905844
0.610295
0.614298
1.20084
0.907869
0.523535
0.404004
0.863893
0.729937
0.422156
0.444437
0.749115
0.749243
0.562544
0.0402548
0.0797576
0.128248
0.118001
0.0724188
0.131362
0.0612197
0.195926
0.0222971
0.0422067
0.354219
0.524069
0.344376
0.415486
0.231483
0.0914367
0.112245
0.142723
0.378455
0.105082
0.337162
0.390596
0.210892
0.185483
0.207317
0.144093
0.176681
0.283117
0.495203
0.417259
0.0838771
0.278873
0.455373
0.286691
0.048451
0.000276492
0.0236946
0.00827721
0.00275008
0.00198987
0.0337998
0.00489297
0.0242891
0.0322045
0.0390945
0.0312615
0.0039406
0.00291798
0.00314933
0.00521172
0.0126861
0.0125083
0.809253
1.15335
1.06168
1.17253
1.41144
1.01495
2.01519
0.181249
1.79394
0.778554
0.300966
0.0871501
0.291258
0.446684
1.05163
0.193933
1.199
0.808092
0.222149
0.358754
0.0360577
0.245043
0.00283544
0.00297091
0.00204725
0.00210738
0.00285576
0.00279032
0.00284551
0.00267149
0.00279794
0.00311224
0.00264273
0.00272139
0.00255255
0.00257429
0.00258315
0.00238042
0.00261404
0.00279875
0.00269587
0.00255553
0.00827562
0.0255581
0.0790238
0.00425587
0.00166642
0.00304239
0.0852425
0.000809192
0.0187444
0.00360725
0.00371386
0.0262278
0.00356977
0.00365377
0.0255765
2.19142
3.10458
2.4143
3.38324
3.20641
2.96205
3.45402
1.95355
0.011704
0.00787089
0.0225071
0.0193436
0.0199708
0.00542739
0.0102168
0.00491024
0.0195334
0.0147633
0.00545876
0.0140505
0.0814298
0.118042
0.970809
0.364278
0.0882727
0.160589
0.894326
0.673162
0.878712
0.929205
1.31476
0.679971
1.08451
1.7126
0.521609
0.202156
0.206086
0.285224
0.00235815
0.0051912
0.00601744
0.00738046
0.00687091
0.00226963
0.00300663
0.00577435
0.00513542
0.00644227
0.00948083
0.00453634
0.00383175
0.00701731
0.00369147
0.00843919
0.0101267
0.00476377
0.0429294
0.0439168
0.0667595
0.0691984
0.0587615
0.063553
0.0340307
0.0422814
0.0499153
0.0770867
0.0681498
0.0456666
0.0965384
0.0471065
0.0682498
0.0700956
0.0640016
0.0421138
0.04122
0.0670516
0.0703879
0.037729
0.0145504
0.013187
0.0150966
0.0177363
0.0139148
0.0167927
0.0146708
0.0130781
0.0156649
0.0174731
0.0172516
0.0157964
0.0155467
0.0144153
0.015744
0.0140278
4.13616
3.55607
3.31354
4.22512
3.26526
3.20867
2.32848
1.70408
1.08399
1.06869
1.16244
1.18241
2.44081
1.15945
1.44356
1.34606
1.66518
1.95032
0.0637674
0.135556
0.120625
0.0626684
0.0344319
0.0195165
0.0606129
0.0732899
0.0867293
0.0694757
0.0378529
0.0317417
0.026851
0.0301869
0.0529778
0.0378235
0.00852067
0.00357573
0.00279567
0.00278628
0.00413971
0.00296735
0.00299583
0.00299667
0.00214726
0.00204224
0.0115361
0.00860909
0.0158828
0.000526013
0.0026256
0.00214685
0.0024138
0.00265452
0.00631768
0.0124257
0.459459
0.451454
0.3677
0.208457
0.05099
0.214598
0.0129014
0.160517
0.216594
0.340342
0.0582232
0.0473012
0.120279
0.14041
0.0703111
0.0823944
0.0350972
0.0245423
0.0179298
0.0454473
0.0373339
0.0619043
0.0130047
0.057608
0.0174505
0.0121789
0.0117897
0.0154663
0.239788
0.167913
0.101458
0.200674
0.294727
0.0616532
0.0439967
0.182097
0.197535
0.176495
0.0468765
0.0342129
0.103986
0.12885
0.0789637
0.0553698
0.0888975
0.0372742
0.0338785
0.00573061
0.0401958
0.0389759
0.0439733
0.0428462
0.0276755
0.0331984
0.0160401
0.014194
0.0197059
0.0129478
0.0468012
0.0458646
0.0241124
0.0385368
0.0360527
0.0393293
0.0548837
0.0216091
0.00757246
0.0725918
0.0586545
0.0265204
0.0236467
0.0450952
0.00246242
0.00135218
0.00504666
0.000377022
0.00223682
0.00210317
3.11259e-05
0.0040814
0.0137398
0.0331717
0.027183
0.00611001
0.00582724
0.0125904
0.00906533
0.011574
0.00768469
0.00843701
0.00327024
0.00492011
0.000572055
0.00928389
0.00904716
0.00498542
0.00466393
0.0049936
0.00500464
0.00460283
0.00476344
0.00505493
0.0048618
0.00485571
0.00482789
0.00497041
0.00472922
0.00457738
0.00477997
0.0120713
0.0124053
0.016716
0.0162466
0.0171405
0.0172739
0.011964
0.0106781
0.0142591
0.0151541
0.0123711
0.015333
0.0132157
0.0138127
0.0425417
0.0466063
0.0475108
0.0557779
0.115813
0.117333
0.125708
0.136603
0.0446173
0.0845618
0.0789918
0.0801167
0.113102
0.078481
0.0698171
0.378362
0.454732
0.0399626
0.0970332
0.139308
0.389349
0.478042
0.00939903
0.0560476
0.0278839
0.0605582
0.136474
0.0353519
0.055598
0.0261656
0.00748376
0.0394408
0.495309
0.530867
0.477932
0.510902
0.445447
0.455155
0.457489
0.487517
0.438342
0.426856
0.494732
0.532104
0.570518
0.451349
0.414339
0.492057
0.558688
0.565114
0.6021
0.56658
0.561485
0.558978
0.156836
0.160838
0.21099
0.233057
0.249806
0.430331
0.139486
0.143522
0.134859
0.240392
0.127327
0.102345
0.357367
0.296176
0.24742
0.110511
0.170405
0.0828774
0.0649139
0.219374
0.202048
0.206727
0.149213
0.217383
0.060122
0.154524
0.0680038
0.206347
0.245328
0.151566
0.186572
0.357337
0.361427
0.169781
0.259061
0.359191
0.407167
0.39705
0.316966
0.276007
0.268682
0.272344
0.294109
0.132772
0.182947
0.338579
0.203114
0.193635
0.213967
0.00356414
0.0037421
0.00392885
0.00358742
0.00334347
0.00369568
0.00333905
0.00337967
0.00362101
0.00339117
0.00335475
0.0033383
0.00337003
0.00340715
0.00336139
0.00335495
0.00335536
0.00335977
0.00331307
0.00336791
0.000235242
0.01209
0.00441398
0.00592539
0.0278962
0.0104994
0.00559168
0.0186867
0.00708389
0.00557546
0.0038097
0.0352255
0.00662618
0.00609171
0.00603232
0.00603144
0.006676
0.00622894
0.00689726
0.00693547
0.00642927
0.00621396
0.00612621
0.00621799
0.00601102
0.00693989
0.00672015
0.0410335
0.0499258
0.0449764
0.0453999
0.228322
0.193017
0.157456
0.162178
0.204759
0.0561015
0.0813922
0.0314894
0.03616
0.135744
0.0980321
0.0782206
0.0906758
0.0863705
0.134777
0.106409