/*--------------------------------*- C++ -*----------------------------------*\
  =========                 |
  \\      /  F ield         | OpenFOAM: The Open Source CFD Toolbox
   \\    /   O peration     | Website:  https://openfoam.org
    \\  /    A nd           | Version:  10
     \\/     M anipulation  |
\*---------------------------------------------------------------------------*/
FoamFile
{
    format      ascii;
    class       volScalarField;
    location    "11";
    object      nut;
}
// * * * * * * * * * * * * * * * * * * * * * * * * * * * * * * * * * * * * * //

dimensions      [0 2 -1 0 0 0 0];

internalField   nonuniform List<scalar> 
75457
(
0.0596843
0.0658597
0.0530391
0.022169
0.0578227
0.0231724
0.0625874
0.0198386
0.0294775
0.0293337
0.0284062
0.0455691
0.05856
0.0209078
0.0357755
0.0300603
0.00785368
0.0208628
0.0258084
0.00601664
0.0131161
0.00950343
0.0332941
0.0344801
0.021361
0.0388626
0.0398939
0.0486988
0.0434024
0.0603226
0.0426367
0.0528457
0.0518605
0.0272131
0.0240483
0.032543
0.0272367
0.0524913
0.048854
0.0293983
0.0305227
0.0279704
0.0303291
0.0138154
0.0218043
0.00738468
0.00520631
0.0126252
0.0971159
0.0538334
0.0764132
0.0949122
0.0891766
0.0788286
0.0576624
0.0598477
0.122996
0.106151
0.100604
0.0150206
0.0899057
0.101003
0.0518659
0.0444335
0.00798434
0.0411533
0.0131238
0.0453098
0.0568565
0.0116168
0.056542
0.0126798
0.0466541
0.00376609
0.0561138
0.0181002
0.0181067
0.154741
0.153243
0.218589
0.123622
0.121072
0.193867
0.228061
0.153453
0.190487
0.200884
0.144558
0.190335
0.1142
0.236233
0.236735
0.139721
0.176901
0.160178
0.0986166
0.0981638
0.101313
0.0141532
0.122716
0.0953584
0.112781
0.00536193
0.00018004
0.00101336
0.00135644
0.00897609
0.00217682
0.0101503
0.0427144
0.0664704
0.00813624
0.00827785
0.0518147
0.0138903
0.0846727
0.0116568
0.0496799
0.0520495
0.0136802
0.00311472
0.0106829
0.0114534
0.0289707
0.0579426
0.0356418
0.00774412
0.0681816
0.073831
0.0128757
0.0246775
0.130653
0.0418752
0.0967442
0.155871
0.0567136
0.0512668
0.136269
0.124416
0.00990993
0.0304258
0.0491345
0.0692953
0.0347803
0.0412493
0.109051
0.0827707
0.063667
0.0680757
0.138224
0.0110788
0.118126
0.0550318
0.0476844
0.067676
0.0750656
0.133206
0.00830856
0.0774215
0.12415
0.00774268
0.0579937
0.123074
0.000864494
0.000869117
0.000861289
0.000878052
0.000872243
0.000869383
0.000865051
0.000855879
0.000882433
0.000849408
0.000866741
0.000867299
0.000868242
0.0788348
0.0919993
0.11574
0.0960762
0.208538
0.00724388
0.180763
0.0751719
0.00871619
0.101941
0.191307
0.0890723
0.0756284
0.0173343
0.12034
0.0725063
0.0966186
0.070669
0.0684605
0.0136894
0.0266787
0.053902
0.0465445
0.0323588
0.0238209
0.0766436
0.0828574
0.0080185
0.0760184
0.0727823
0.0693851
0.129752
0.1171
0.116838
0.106949
0.104683
0.0128396
0.0133231
0.111246
0.0932525
0.0145076
0.103553
0.0146272
0.0153628
0.0633634
0.106999
0.0773948
0.0098032
0.0833142
0.0836827
0.0138846
0.0675194
0.106182
0.00725117
0.0460114
0.0444649
0.0634772
0.078759
0.0914778
0.105443
0.121252
0.0895476
0.090795
0.0921707
0.0893305
0.113595
0.00935113
0.124792
0.0734184
0.0935308
0.104058
0.119128
0.103996
0.0124023
0.102914
0.00964072
0.0712257
0.0105366
0.0913313
0.00724877
0.0658645
0.0289909
0.0426577
0.00904041
0.0325058
0.0356836
0.0937316
0.0585638
0.091689
0.0175723
0.0909941
0.0158455
0.0160024
0.0707309
0.0121316
0.0795264
0.137785
0.133809
0.0890352
0.125664
0.0932683
0.0776351
0.011072
0.0835028
0.111808
0.00951806
0.0995375
0.00855743
0.103647
0.007842
0.100683
0.0662143
0.0753071
0.0906389
0.081454
0.0861359
0.145893
0.00904926
0.0684909
0.0121829
0.0695804
0.109267
0.110042
0.0104847
0.116075
0.0518023
0.027247
0.103617
0.071574
0.229589
0.00843572
0.123606
0.176791
0.0135646
0.258686
0.116537
0.088628
0.0942964
0.0632959
0.0524671
0.0505971
0.0677913
0.0582146
0.0267662
0.0409091
0.0628034
0.0540779
0.0223019
0.0109683
0.112443
0.0956125
0.0886306
0.122095
0.0848281
0.0549075
0.0577018
0.0985139
0.00840499
0.0950282
0.0967524
0.135278
0.138892
0.0124126
0.110149
0.127712
0.0112654
0.114442
0.103329
0.0392559
0.069116
0.0802148
0.112856
0.0344735
0.12392
0.131072
0.0283722
0.109408
0.114878
0.115518
0.144979
0.129488
0.0209507
0.104585
0.133639
0.0180105
0.0136156
0.0194048
0.0130021
0.0844342
0.0865771
0.0811312
0.0906636
0.091969
0.0874633
0.0994716
0.0939274
0.0939196
0.101483
0.013428
0.0860186
0.0859729
0.121043
0.00864931
0.0988765
0.0755226
0.0787445
0.0142052
0.0192101
0.0682976
0.288466
0.100594
0.122493
0.0689904
0.0697048
0.0934088
0.000887795
0.000918505
0.000849395
0.000847035
0.000911562
0.000930593
0.000880265
0.00093403
0.000884002
0.000940242
0.00083742
0.000835706
0.000837242
0.000864023
0.000848289
0.000838611
0.000812333
0.00083898
0.000897053
0.000902442
0.000857276
0.000816582
0.000793784
0.000801903
0.00086875
0.000857638
0.00085641
0.000799026
0.000789075
0.000826629
0.000839213
0.000910829
0.000904508
0.000850856
0.0008481
0.000885584
0.000869559
0.000853688
0.000853381
0.000911912
0.000901601
0.000876257
0.000895778
0.000869314
0.000861239
0.000858276
0.000856368
0.000893288
0.000916784
0.000863195
0.000883908
0.000893166
0.000873331
0.0512314
0.0249208
0.0261334
0.0239331
0.0254675
0.0446135
0.0223397
0.027277
0.0193139
0.0486946
0.0197388
0.0189402
0.0201431
0.0212242
0.017192
0.0472249
0.0462716
0.0397282
0.0517594
0.0253048
0.0320714
0.0332967
0.0582159
0.0243377
0.0317443
0.0308106
0.0458056
0.0366522
0.0512068
0.0312467
0.0277238
0.0120601
0.00360022
0.00530802
0.0205538
0.0193495
0.0127192
0.00498229
0.00490456
0.00498018
0.00612989
0.00376501
0.0120887
0.0190561
0.0186559
0.0224804
0.053123
0.0243088
0.0153654
0.0150822
0.00087769
0.000879508
0.000888431
0.000886496
0.000876575
0.000916288
0.000918461
0.000834571
0.000865853
0.000907894
0.000901431
0.000953665
0.000911396
0.0008664
0.000861588
0.000866355
0.000842642
0.000839147
0.00084102
0.000844766
0.00084517
0.000835895
0.00085294
0.00084718
0.00084625
0.000847464
0.000859441
0.000847464
0.000850861
0.000849071
0.00085483
0.000862943
0.000853704
0.000943484
0.000977304
0.000965699
0.00100689
0.00100616
0.000988499
0.00074591
0.00147812
0.000929305
0.00101538
0.00085414
0.000981273
0.000953251
0.000988772
0.000923856
0.000963833
0.000766781
0.0977049
0.0975641
0.0943981
0.091609
0.103082
0.103847
0.127716
0.117648
0.106135
0.110786
0.0965762
0.0922959
0.129867
0.115307
0.129161
0.100957
0.100008
0.105466
0.0222855
0.0234
0.0278434
0.0342798
0.015145
0.0383873
0.0244519
0.0256165
0.0270469
0.0441314
0.0290004
0.0289665
0.0283188
0.0168687
0.0490609
0.0455361
0.0638248
0.0431511
0.0660226
0.0654501
0.0670277
0.0469498
0.0431775
0.067899
0.0681854
0.0672693
0.0479072
0.0349327
0.0343218
0.0597523
0.0450251
0.0591819
0.00091925
0.000920606
0.00092199
0.000981503
0.00103131
0.000922644
0.00089112
0.000963699
0.000945277
0.000945649
0.000853049
0.00102576
0.0869824
0.0636245
0.10622
0.0518589
0.0965034
0.0797676
0.081389
0.0833278
0.0983831
0.03338
0.0219997
0.0257348
0.0242253
0.0204361
0.0250691
0.024348
0.00639716
0.0187585
0.00499634
0.0162074
0.0311174
0.0285574
0.0332304
0.0269039
0.0247681
0.0173951
0.0131993
0.00715497
0.0282968
0.0135783
0.017175
0.0165822
0.00157851
0.00117643
0.0109591
0.0023737
0.000469585
0.0152601
0.0116457
0.00313052
6.16101e-05
0.000585946
0.000229794
0.000548659
0.000902409
0.000777335
0.00104151
0.0153278
0.0140325
0.0137772
0.00424618
0.0521618
0.0420976
0.0313502
0.066425
0.0406485
0.0541338
0.0432849
0.0250388
0.0397735
0.0254954
0.0614874
0.0515913
0.0452369
0.0458135
0.104582
0.115102
0.0987342
0.100777
0.102434
0.101347
0.0784603
0.0908863
0.110186
0.0769095
0.0788323
0.114225
0.0860787
0.0781673
0.0841387
0.0798308
0.0791349
0.0815963
0.0400684
0.067779
0.074676
0.00699856
0.0221972
0.0602197
0.0370119
0.011428
0.0197146
0.080429
0.0662812
0.17226
0.177131
0.171102
0.0964979
0.118151
0.174617
0.173996
0.136461
0.166869
0.164988
0.170537
0.135562
0.13815
0.177085
0.146598
0.166815
0.172477
0.16138
0.161922
0.113517
0.140212
0.0132568
0.00980612
0.0290818
0.0214745
0.0246722
0.0114384
0.0192326
0.0188657
0.0182425
0.0469279
0.0540466
0.0620246
0.0100683
0.0548108
0.0730225
0.0445996
0.060706
0.00453648
0.0288618
0.0370463
0.0273584
0.0211845
0.0271951
0.0490665
0.0271755
0.0205132
0.0449795
0.0225238
0.191241
0.211595
0.197755
0.158728
0.17077
0.173736
0.168483
0.151382
0.147848
0.171854
0.164159
0.165986
0.154261
0.0252809
0.0298025
0.00938617
0.011589
0.0101622
0.00922316
0.0146217
0.0176644
0.0460542
0.0204215
0.0321283
0.0344636
0.0108077
0.0109034
0.0330735
0.0198933
0.0335582
0.0328708
0.0251254
0.0392458
0.0458339
0.0215877
0.0251232
0.00974188
0.0355375
0.0129583
0.0103005
0.0408189
0.0390398
0.00859936
0.0279937
0.032711
0.02783
0.0261397
0.0397171
0.0128724
0.0203944
0.0537952
0.0357687
0.0179842
0.00255344
0.00610445
0.0385467
0.0574178
0.0208871
0.0219271
0.0430154
0.0536369
0.0213721
0.0232639
0.0317068
0.0234805
0.0237576
0.0397023
0.042405
0.0527764
0.0252008
0.0249769
0.0338771
0.054479
0.0265829
0.021422
0.0355654
0.0209446
0.0530402
0.0440008
0.00788243
0.0132093
0.0187343
0.0236532
0.0124708
0.0150812
0.027155
0.0515629
0.0654791
0.0530511
0.0168869
0.0242595
0.013568
0.0432626
0.0298367
0.00983135
0.00827911
0.00892244
0.0101632
0.0106701
0.0089523
0.00797999
0.00691651
0.00679256
0.00777204
0.00835173
0.00686997
0.00775484
0.00846208
0.000857883
0.00079426
0.000808089
0.000862749
0.000840086
0.000814437
0.000831269
0.000849349
0.000898904
0.000901464
0.0421004
0.0319027
0.0451768
0.0544695
0.0226416
0.0203678
0.0519097
0.0625854
0.0271458
0.0442864
0.0443536
0.0450548
0.0490115
0.0189232
0.048662
0.0440567
0.0131579
0.107623
0.110829
0.108646
0.171434
0.163283
0.135598
0.154188
0.152174
0.163351
0.178208
0.0998397
0.101542
0.119126
0.112664
0.144877
0.164473
0.158437
0.112013
0.116298
0.124064
0.000512364
0.000768904
0.000779449
0.000461785
0.000973149
0.00556442
0.00588862
0.00110745
0.000768316
0.000706726
0.00569668
0.00710598
0.000423114
0.00366861
0.00472532
0.00786447
0.192476
0.256915
0.331836
0.28933
0.140782
0.221389
0.138786
0.195753
0.27731
0.260082
0.152018
0.180659
0.215558
0.0377818
0.0515476
0.0473404
0.0299457
0.0277811
0.0312554
0.0472828
0.0419988
0.0342628
0.0324625
0.0212708
0.0333836
0.0106233
0.0274924
0.0236269
0.0138341
0.0290147
0.0266484
0.0131465
0.0121261
0.0117505
0.0140289
0.000317324
0.000258279
0.000677495
0.00041309
0.000386848
0.00673684
0.0260655
0.00102256
0.0097037
0.0555505
0.0635764
0.0349158
0.0323407
0.0374934
0.0135572
0.0411798
0.0451336
0.036973
0.0173026
0.0169155
0.0359678
0.00829989
0.0203748
0.018139
0.0152723
0.0152611
0.0215404
0.0139916
0.160561
0.124245
0.141894
0.150958
0.127399
0.136398
0.0998229
0.188143
0.142426
0.18164
0.175885
0.192083
0.183623
0.156042
0.176522
0.119559
0.0156769
0.0333331
0.0284439
0.016912
0.00235938
0.0044905
0.00594769
0.00261411
0.00237765
0.00218825
0.0207325
0.0147369
0.00404025
0.00149307
0.00600342
0.00480601
0.0224715
0.136561
0.0907533
0.121789
0.0245982
0.12078
0.0847059
0.062577
0.0783363
0.07852
0.0835514
0.101497
0.15336
0.165902
0.0926308
0.0954943
0.0978125
0.0975297
0.0841851
0.16101
0.00200491
0.00121125
0.00100553
0.000920586
0.00110872
0.000828189
0.000848641
0.000907782
0.000961577
0.00186747
0.0022486
0.00126106
0.00116287
0.000846227
0.00217282
0.0125921
0.0138751
0.0232764
0.0316315
0.0392998
0.0369361
0.0414145
0.0194709
0.053824
0.0674859
0.0614563
0.0342042
0.0723233
0.0690468
0.00710778
0.0112743
0.00539398
0.00660392
0.00606213
0.00882937
0.00391271
0.00224383
0.00887688
0.00221752
0.00464238
0.00218206
0.00322729
0.00198263
0.0016983
0.00188624
0.0310186
0.0330234
0.0271548
0.0271109
0.0618294
0.0623254
0.0190107
0.0418779
0.040015
0.0233907
0.0628014
0.0528586
0.0645187
0.0510127
0.0543131
0.0632914
0.0667771
0.0646576
0.0631421
0.00471548
0.0163512
0.00833549
0.00933169
0.00519729
0.0319109
0.0114308
0.0170739
0.0201608
0.0155129
0.00500055
0.00639899
0.00752622
0.005964
0.0221607
0.0187966
0.0168064
0.035747
0.0265572
0.031016
0.0144188
0.0208834
0.0377395
0.0259907
0.0222195
0.00193488
0.00165363
0.00146224
0.00963471
0.000521122
0.000860642
0.00344886
0.00303439
0.00164054
0.001483
0.00342875
0.00388289
0.00158706
0.00313052
0.00112365
0.000877226
0.000913026
0.00103543
0.00416798
0.00108671
0.00743521
0.00676447
0.00546786
0.0103644
0.00802529
0.0078398
0.0208642
0.00760569
0.0205462
0.0235582
0.0185372
0.0131559
0.109732
0.162074
0.0137422
0.16334
0.068915
0.100926
0.0700472
0.00986537
0.0115247
0.09194
0.0816139
0.0776182
0.0131163
0.0955456
0.0963099
0.0769701
0.097165
0.0863717
0.0871019
0.0904702
0.0912866
0.0891584
0.0861548
0.0906743
0.0911183
0.0993968
0.0152085
0.0907295
0.0173324
0.090881
0.0898071
0.0897351
0.0847233
0.0889006
0.110964
0.102973
0.108045
0.021069
0.0370774
0.0129415
0.0215701
0.0145558
0.010535
0.00710945
0.0158407
0.00959113
0.00895489
0.00910924
0.00883117
0.00872877
0.00886332
0.00878423
0.00674913
0.145873
0.0966827
0.119699
0.138568
0.0680317
0.0846784
0.16835
0.101242
0.0685122
0.113085
0.09498
0.123272
0.0535341
0.101818
0.0168935
0.100696
0.0141632
0.0636994
0.0251635
0.0970131
0.0220593
0.115314
0.0757049
0.083235
0.0933443
0.0713956
0.113705
0.0143861
0.105558
0.0449747
0.0785774
0.0845861
0.0158424
0.0795465
0.111304
0.102144
0.106394
0.0925594
0.0718374
0.152406
0.00997818
0.0544256
0.067741
0.0142521
0.067146
0.0852714
0.0494845
0.120459
0.0154588
0.13351
0.0680028
0.0982866
0.0132581
0.0823939
0.057569
0.100143
0.0597005
0.0940182
0.0149617
0.0952123
0.0630322
0.0677038
0.0843064
0.0889475
0.0702697
0.066997
0.0751891
0.0693532
0.0416045
0.0556919
0.0489403
0.0715193
0.0725105
0.0305754
0.0348037
0.0363473
0.0625752
0.076228
0.0481511
0.0545458
0.035249
0.0659433
0.0681735
0.0192518
0.0214258
0.0108688
0.00901391
0.010347
0.011724
0.0258663
0.0245757
0.01233
0.0159288
0.0119048
0.0697049
0.0831012
0.0539171
0.000913412
0.000903638
0.000915242
0.000962877
0.000909525
0.000879269
0.00329117
0.0036334
0.00550729
0.0028388
0.00013004
0.000997857
0.00138708
0.000813967
0.00254031
0.00236494
0.00717587
0.00245238
0.000566403
0.000683647
0.03744
0.0555881
0.056837
0.0440453
0.0273407
0.0352787
0.0223586
0.00999696
0.0497728
0.0654981
0.0532452
0.0204089
0.0230411
0.0115332
0.0325091
0.0303762
0.0326629
0.0382788
0.0333215
0.00558294
0.00301788
0.00451007
0.0038191
0.0462602
0.0551097
0.023022
0.0306963
0.0118219
0.00508121
0.0333042
0.0108133
0.00624151
0.0302246
0.0482027
0.0287813
0.0206844
0.0289377
0.0215131
0.0292331
0.0535708
0.0504076
0.0767975
0.0542978
0.074506
0.0893919
0.0886514
0.101804
0.0968443
0.107245
0.085566
0.0752409
0.0969173
0.0851666
0.0962479
0.0851532
0.0667406
0.0663805
0.0839321
0.124031
0.148443
0.138026
0.191776
0.106624
0.0627352
0.122422
0.156471
0.190673
0.14089
0.117241
0.0798036
0.0925765
0.129347
0.143055
0.112158
0.00096114
0.000974085
0.00102927
0.00114866
0.00099819
0.000979152
0.0016604
0.000964423
0.00109365
0.000757671
0.00097334
0.000948206
0.00101745
0.00104127
0.00110091
0.00110479
0.00107255
0.00101003
0.000998623
0.00103558
0.0916851
0.105096
0.0769482
0.100247
0.0737036
0.0785834
0.0438011
0.061973
0.0939192
0.0807192
0.0107942
0.101315
0.052137
0.0525829
0.081894
0.076202
0.010749
0.083685
0.0133592
0.074134
0.000715904
0.00118829
0.00132965
0.00098333
0.000885749
0.000944437
0.0010163
0.000990198
0.0010407
0.000994274
0.000939863
0.0010683
0.00105233
0.000770965
0.00106378
0.000945414
0.00141951
0.154829
0.0895499
0.140942
0.012708
0.0911312
0.107235
0.0940998
0.111376
0.0191101
0.10826
0.245966
0.0739297
0.000989348
0.000905553
0.000593866
0.000283817
0.000873207
0.000719784
0.000704456
0.000491171
0.00035437
0.000899782
0.000702632
0.000368838
0.00444155
1.95268e-05
0.00169812
8.09062e-05
0.00241769
0.00811804
7.20445e-05
0.00502724
0.00712386
0.0283814
0.0260866
0.00125108
0.00199143
0.0392023
0.0299752
0.0417843
0.00169291
0.00386484
0.00621708
0.00139909
0.00313131
0.00371888
0.00144206
0.0121982
0.00365844
0.00543371
0.00178943
0.0113204
0.0289116
0.00865564
0.0127319
0.0187954
0.0574224
0.00123707
0.00332642
0.0436047
0.0665461
0.00804426
0.00210684
0.0191474
0.0409864
0.0128119
0.0240299
0.0295256
0.0312167
0.0174846
0.0137432
0.0330239
0.0276642
0.0241184
0.0128182
0.00349259
0.022116
0.0108913
0.0101404
0.00339752
0.00438154
0.00685241
0.00863008
0.0152312
0.000592448
0.00124354
0.000163569
0.00083006
0.0200779
0.0189493
0.00274323
0.000309738
0.0014824
0.0108351
0.0203527
0.0205671
0.0016966
0.000424122
0.000708369
0.0188178
0.0108233
0.0630816
0.0515176
0.0176618
0.0572931
0.0451379
0.03328
0.016305
0.00137167
0.000162175
0.00208341
0.00737469
0.000692247
0.000960185
0.000971035
0.000441583
0.00148546
0.000961265
0.00093372
0.000978662
0.000975792
0.000569521
0.000556982
0.000890875
0.000911914
0.0010363
0.000778397
0.000743424
0.00103884
0.000832065
0.015869
0.012606
0.011971
0.0216387
0.0131646
0.0406107
0.0532191
0.0185093
0.0208277
0.0272091
0.0252003
0.0345449
0.0259312
0.0230135
0.0996149
0.0885037
0.0273184
0.13706
0.0603451
0.0571241
0.0406823
0.0144998
0.0188229
0.0555287
0.0529294
0.0292264
0.0287051
0.0294773
0.0169673
0.0210826
0.031338
0.0205123
0.0182586
0.0254299
0.0156521
0.0100849
0.0263299
0.0369329
0.0266928
0.0262017
0.100326
0.112879
0.121299
0.115675
0.0986561
0.113344
0.116323
0.119259
0.096564
0.115686
0.104577
0.112902
0.12771
0.135625
0.125088
0.123169
0.0897408
0.0844574
0.0861332
0.0909204
0.102801
0.0964602
0.104775
0.128677
0.093163
0.129876
0.0141831
0.0897595
0.0876278
0.0911392
0.101606
0.105275
0.0893414
0.110012
0.019468
0.0867361
0.0991405
0.0210522
0.102478
0.0203808
0.0957457
0.0926794
0.0852217
0.0787245
0.0180584
0.102354
0.0920429
0.0647397
0.0771979
0.105759
0.0693562
0.0963279
0.0932639
0.0657581
0.0643172
0.058168
0.0991328
0.178319
0.158663
0.165803
0.121624
0.138581
0.135558
0.108633
0.146935
0.157044
0.127839
0.152028
0.142518
0.110292
0.127378
0.0242658
0.123535
0.111465
0.10977
0.0207752
0.0981729
0.122713
0.109309
0.114542
0.0471052
0.052172
0.0565487
0.0873653
0.078196
0.13177
0.0938867
0.0865859
0.0507485
0.0699721
0.0992388
0.0704237
0.0106823
0.00991554
0.0679738
0.0719407
0.0736789
0.013676
0.106831
0.0782387
0.0865579
0.120943
0.107965
0.0113985
0.0756663
0.0715376
0.0633128
0.0982185
0.0962907
0.0725535
0.0139774
0.0901974
0.0979272
0.0898344
0.0634158
0.107153
0.125679
0.0648681
0.0637996
0.104166
0.0914522
0.0808732
0.0113768
0.118088
0.0834816
0.068862
0.0682479
0.0851234
0.0722201
0.109454
0.11394
0.112587
0.110918
0.105121
0.109023
0.10958
0.103412
0.103678
0.103013
0.0896787
0.0903922
0.11049
0.090007
0.0890193
0.100963
0.102553
0.0392477
0.0441472
0.0449635
0.04485
0.0445476
0.0469371
0.043481
0.0511059
0.0387854
0.0389195
0.040907
0.0476199
0.0410949
0.0460678
0.0439335
0.0449844
0.0429644
0.0415686
0.0428249
0.0495584
0.0458843
0.0437167
0.0332935
0.0279775
0.0254304
0.0261194
0.0239338
0.0107441
0.00772583
0.0216556
0.0184054
0.00592104
0.00377161
0.012589
0.0114143
0.00257887
0.0119889
0.0067858
0.00920663
0.0103451
0.217338
0.169977
0.137414
0.145878
0.143158
0.147994
0.258618
0.172632
0.159761
0.24257
0.168644
0.152396
0.18028
0.182057
0.23996
0.185572
0.257114
0.031136
0.00611258
0.0344541
0.0882755
0.0859067
0.00786044
0.023969
0.0215771
0.00349864
0.0566378
0.0774925
0.0947322
0.0455159
0.0442647
0.0894686
0.103708
0.0317838
0.0335652
0.0343543
0.0337296
0.0445413
0.0477825
0.0347591
0.0954349
0.0999235
0.0430727
0.0421072
0.0580421
0.0858738
0.0939192
0.0858103
0.0972133
0.0877857
0.0969869
0.0812526
0.0149092
0.0971395
0.0137363
0.0733894
0.0857017
0.0692303
0.0206335
0.0183446
0.0211295
0.0177259
0.00945032
0.0184228
0.0150311
0.0136177
0.0158466
0.0181195
0.0168621
0.0161046
0.0136435
0.0161152
0.0443112
0.0532663
0.0344437
0.0381906
0.0573515
0.0350982
0.0377017
0.0645866
0.0794717
0.0716497
0.0883173
0.0500965
0.0514874
0.0639956
0.0289383
0.065054
0.069422
0.0270939
0.0437863
0.172099
0.0542434
0.243145
0.271848
0.073565
0.113035
0.151601
0.249688
0.208031
0.16744
0.170674
0.266146
0.238207
0.229953
0.00144434
0.00169431
0.000972142
0.00119044
0.00128365
0.00111234
0.00119078
0.0011329
0.000940387
0.000894257
0.093141
0.0119359
0.0870116
0.0146692
0.0546554
0.0498194
0.0410768
0.0608898
0.0741185
0.0743499
0.086488
0.0931935
0.0876649
0.0474084
0.0501483
0.0243155
0.0744455
0.0864049
0.0466331
0.0496968
0.0431399
0.046369
0.148833
0.0768302
0.125807
0.0918165
0.134516
0.026531
0.0806335
0.217081
0.18923
0.0285133
0.0889928
0.0308443
0.0800696
0.21028
0.2148
0.0793214
0.0614087
0.179524
0.000870803
0.000870738
0.000873574
0.000873623
0.000872928
0.000869183
0.000873682
0.000871212
0.000866742
0.000865634
0.000876322
0.000870985
0.000867924
0.000869214
0.000878075
0.000887176
0.000872531
0.000877543
0.000867046
0.120564
0.111969
0.0807609
0.10088
0.0624349
0.0564287
0.0888176
0.0998018
0.061911
0.104899
0.0803179
0.109546
0.107837
0.0634628
0.11236
0.0983458
0.110741
0.0445625
0.000947881
0.000964827
0.000971569
0.000934791
0.000953596
0.000971158
0.000977109
0.000977743
0.000965928
0.0010287
0.000994214
0.000981972
0.000994972
0.0010098
0.00102787
0.00102215
0.000857708
0.000843432
0.000842256
0.000865485
0.00087973
0.000859049
0.000851346
0.000856603
0.000826296
0.000825762
0.000873702
0.000832746
0.000873677
0.000844412
0.000879768
0.000853114
0.00085377
0.000853136
0.000876933
0.000860425
0.000852233
0.000889071
0.000869433
0.000866062
0.000845052
0.000897731
0.000899749
0.000864348
0.00087577
0.000973801
0.000852647
0.000924682
0.000905156
0.000338045
0.000860789
0.000898166
0.000873366
0.000898292
0.000909685
0.000738314
0.000872426
0.000858685
0.000833261
0.000667088
0.000886695
0.000890355
0.000885009
0.000879709
0.000879423
0.000880764
0.000880804
0.000900839
0.000891954
0.000886992
0.000890065
0.000891369
0.000883675
0.000872911
0.000886773
0.000884944
0.000899767
0.000889137
0.000895846
0.000893478
0.0838938
0.0843014
0.0804279
0.0551208
0.0684912
0.0621292
0.0800875
0.0715289
0.0734503
0.047426
0.0483635
0.0706522
0.0657572
0.0708303
0.076821
0.102463
0.0762559
0.0879006
0.0866532
0.0919711
0.10183
0.0864085
0.0919737
0.0883157
0.104709
0.0953835
0.102681
0.0899248
0.0499429
0.050123
0.0499156
0.0831939
0.0939188
0.000908787
0.000909235
0.000896508
0.000946928
0.000913342
0.000909259
0.000863092
0.000886645
0.000887517
0.000879208
0.000882671
0.000896221
0.000897158
0.000893294
0.000877227
0.0847245
0.05769
0.050842
0.0484223
0.0923199
0.0465412
0.0709924
0.0897824
0.103189
0.000882167
0.000889034
0.000882998
0.000881881
0.000893414
0.000881719
0.000880851
0.000887028
0.000886372
0.000873831
0.000871118
0.000853836
0.00086828
0.00088617
0.000880783
0.000868556
0.000844816
0.000854118
0.000898094
0.000886326
0.000884951
0.000833686
0.000726804
0.00102547
0.000647601
0.000756931
0.00104558
0.00190417
0.000859163
0.000659024
0.000561615
0.000706408
0.000601408
0.000760767
0.000839132
0.000472617
0.000662247
0.000793407
0.000753028
0.00152801
0.000859718
0.00225265
0.000821557
0.000839631
0.000785592
0.000896827
0.000958264
0.000869183
0.000910853
0.000943228
0.000880768
0.000838709
0.000802164
0.00080601
0.000801175
0.000903183
0.000891156
0.000929111
0.000917077
0.000886864
0.000884828
0.000890254
0.000865649
0.000940464
0.00080941
0.000899116
0.000934836
0.000802775
0.00655378
0.0137003
0.0115375
0.00910051
0.00373166
0.00755847
0.000912477
0.000965019
0.0105213
0.00362879
0.0110716
0.00775622
0.00641183
0.00096192
0.00180408
0.00467972
0.00184333
0.0024682
0.000718261
0.00176175
0.0020048
0.00243297
0.00178709
0.00438692
0.00198216
0.00243357
0.00184774
0.00178683
0.00170089
0.00166468
0.00251379
0.00190364
0.00202601
0.00520166
0.00220455
0.00320735
0.00437733
0.0025619
0.00330276
0.00307281
0.00297515
0.00225113
0.00229976
0.00252933
0.000887366
0.000888368
0.000965376
0.000881709
0.000884615
0.00105581
0.000902472
0.000895064
0.000877991
0.000896729
0.00106415
0.000891938
0.000854709
0.000848185
0.000859796
0.000857279
0.000816755
0.000855606
0.000861901
0.000861948
0.00085046
0.000821445
0.000868189
0.000835363
0.00085951
0.000858163
0.0781388
0.0611407
0.0690012
0.0785185
0.0676373
0.0603817
0.0655975
0.069729
0.0722651
0.0877264
0.0942724
0.0845944
0.0872854
0.00646695
0.00463564
0.00524777
0.0046308
0.00443118
0.00651399
0.00341342
0.00694324
0.004539
0.00421058
0.00424792
0.00344358
0.0026911
0.00247868
0.00405591
0.00717792
0.00464835
0.00694301
0.00698005
0.0105755
0.00430315
0.00290329
0.0148287
0.0126888
0.0287375
0.00848608
0.0145114
0.00781511
0.0052037
0.012357
0.00666974
0.00634565
0.00845559
0.0053955
0.0080786
0.00555844
0.0117847
0.00641797
0.00405239
0.00440439
0.0105939
0.00558081
0.00466038
0.00573928
0.00684538
0.171879
0.177621
0.16573
0.149404
0.182596
0.174247
0.193378
0.190317
0.186442
0.199546
0.205639
0.000838135
0.000828821
0.000836794
0.000838811
0.000833604
0.000836887
0.000836147
0.000832834
0.000833379
0.00083226
0.000836519
0.000838576
0.000833813
0.00042225
0.00142231
0.000223815
0.00487344
0.000311046
0.00113807
0.000768603
0.000838027
0.00105886
0.00134404
0.000979185
0.00108952
0.00103428
0.00101367
0.00182353
0.000927852
0.00107246
0.00101263
0.00158631
0.000920064
0.000983466
0.000965258
0.000732347
0.000774977
0.000653517
0.00045205
0.000988401
0.000692891
0.000677633
0.000917947
0.000672107
0.000780891
0.000784836
0.000842156
0.000845621
0.000805234
0.000763334
0.000839194
0.000827233
0.000856393
0.000840291
0.000855042
0.00084296
0.000864917
0.000857856
0.00083807
0.000829826
0.000842249
0.000847161
0.00093332
0.000853309
0.000862924
0.000927894
0.000924459
0.000939337
0.000914072
0.00091358
0.0009333
0.000942389
0.000925799
0.000935452
0.000930387
0.000917631
0.00093521
0.000913846
0.000274917
0.00116815
0.00112299
0.00066862
0.000687997
0.000905026
0.000876971
0.00100269
0.000926671
0.000912174
0.000922534
0.000440731
4.08327e-05
0.000901813
0.000962484
0.000825052
0.000980404
0.000763087
0.00155352
0.00228744
0.000610183
0.00419637
0.00588861
0.00416974
0.00464949
0.00780222
0.00683521
0.00538522
0.00984787
0.0107356
0.00838713
0.0101727
0.012272
0.00798735
0.00855278
0.00969445
0.0109516
0.00794626
0.0104938
0.0483904
0.144228
0.0448153
0.0664038
0.0519046
0.104313
0.0156501
0.020552
0.108364
0.016482
0.0627506
0.146712
0.0752533
0.0471191
0.070936
0.0481033
0.010171
0.0529909
0.0661553
0.0213181
0.091127
0.0661633
0.0265399
0.0112342
0.0513308
0.0759858
0.0803621
0.00439289
0.0112482
0.0115468
0.00110111
0.0045717
0.0867676
0.00119517
0.0676809
0.0336661
0.11127
0.01813
0.0981315
0.167613
0.123661
0.0807012
0.0857073
0.168586
0.0778322
0.119396
0.0437932
0.206764
0.155509
0.0842711
0.116377
0.172411
0.150201
0.133603
0.200508
0.166004
0.133391
0.108364
0.139805
0.113019
0.107767
0.117068
0.182543
0.165454
0.125688
0.00816268
0.0125366
0.0174623
0.0100357
0.00737868
0.0102506
0.00473298
0.0123155
0.00441221
0.00958077
0.0186151
0.0167938
0.0162646
0.0121834
0.0134251
0.0105914
0.0140046
0.0071737
0.0205601
0.0151499
0.0686298
0.0756089
0.0496636
0.0455981
0.0493428
0.0371356
0.0441897
0.0625377
0.0880783
0.079414
0.0233717
0.0641168
0.0886123
0.0642793
0.00941851
6.87717e-05
0.00487847
0.0017561
0.000744481
0.000531153
0.00724583
0.0014109
0.00531086
0.00642815
0.0072891
0.006161
0.00111384
0.000853811
0.000884281
0.00144205
0.00311064
0.00310332
0.0890936
0.116529
0.108905
0.126364
0.148615
0.108186
0.17544
0.0203136
0.178058
0.073201
0.0445321
0.0130241
0.0423655
0.0565615
0.105569
0.0250002
0.116803
0.0807407
0.0332519
0.0443744
0.00726682
0.0365144
0.000777939
0.000817087
0.000566259
0.000589074
0.000797852
0.000793398
0.000791265
0.000736009
0.000776526
0.000863464
0.000744339
0.000777156
0.00072974
0.000713325
0.000720175
0.000672835
0.000733613
0.000791519
0.000780497
0.000729731
0.00144491
0.00430929
0.0112225
0.000916347
0.000296796
0.000640087
0.0119167
0.000158858
0.00340972
0.000808967
0.000820891
0.00481311
0.000763594
0.000808262
0.00524888
0.241734
0.364894
0.279996
0.384841
0.321866
0.379912
0.382283
0.208273
0.00385791
0.00249835
0.00721987
0.00615211
0.00643445
0.00175156
0.00325735
0.00152389
0.00638093
0.00482542
0.00172488
0.00456383
0.0227894
0.0321769
0.0986632
0.067392
0.0259325
0.0397469
0.0958498
0.0968668
0.0917963
0.0923814
0.0144541
0.0905
0.0940444
0.0188679
0.0727691
0.0452585
0.0462965
0.0583717
0.000788746
0.00170928
0.00200352
0.0024461
0.0022303
0.000747909
0.00100368
0.00182618
0.0016668
0.00209587
0.00303347
0.00142475
0.00125617
0.00231097
0.00120417
0.00265996
0.00314282
0.00153596
0.0228274
0.0233215
0.0328167
0.0333015
0.0301977
0.0313173
0.0182617
0.0224513
0.0258354
0.0358661
0.0339389
0.0237721
0.0411385
0.0240974
0.0340289
0.0347184
0.0315957
0.0220109
0.0214669
0.0321662
0.0347739
0.0198559
0.000919401
0.000912774
0.000925064
0.000937028
0.000917338
0.000929093
0.000922111
0.000910892
0.000919317
0.000927082
0.00093309
0.000926766
0.00092696
0.00092126
0.000925932
0.000919312
0.512779
0.509117
0.460186
0.538171
0.416431
0.527439
0.309364
0.284791
0.210406
0.202786
0.208398
0.214231
0.42747
0.229322
0.244059
0.19599
0.311852
0.317446
0.0281522
0.0496078
0.0449368
0.0272453
0.0160723
0.00953843
0.0249466
0.0292049
0.0363813
0.0306179
0.0174253
0.0143885
0.0127015
0.0146436
0.0241092
0.0179697
0.00218306
0.000922905
0.000707444
0.000715621
0.00110672
0.000761516
0.000772397
0.000769839
0.000548422
0.000523248
0.00298383
0.00219657
0.00406618
0.000135576
0.000685474
0.000561403
0.000636597
0.000700568
0.0016908
0.00331652
0.0520729
0.0523526
0.0482152
0.0314483
0.0100888
0.0299448
0.00222687
0.0255612
0.0322587
0.0428198
0.0113798
0.00972153
0.0204467
0.0230347
0.0131006
0.0145411
0.00956492
0.00652507
0.00511748
0.01279
0.012225
0.017739
0.00462146
0.017303
0.00614672
0.00462334
0.00424322
0.00588312
0.0677083
0.0562101
0.0406031
0.0622841
0.0748342
0.0289541
0.0213521
0.053251
0.0619093
0.0600551
0.0232603
0.0176868
0.0393195
0.0416625
0.0349978
0.0257015
0.0339312
0.0132078
0.0119553
0.00201713
0.0131051
0.0125184
0.0143441
0.0136975
0.00987181
0.0115297
0.00596757
0.00514131
0.00706434
0.0047189
0.0157121