/*--------------------------------*- C++ -*----------------------------------*\
  =========                 |
  \\      /  F ield         | OpenFOAM: The Open Source CFD Toolbox
   \\    /   O peration     | Website:  https://openfoam.org
    \\  /    A nd           | Version:  10
     \\/     M anipulation  |
\*---------------------------------------------------------------------------*/
FoamFile
{
    format      ascii;
    class       volScalarField;
    location    "11";
    object      omega;
}
// * * * * * * * * * * * * * * * * * * * * * * * * * * * * * * * * * * * * * //

dimensions      [0 0 -1 0 0 0 0];

internalField   nonuniform List<scalar> 
75457
(
32.7218
33.5981
25.2638
19.9975
24.72
33.9787
27.6125
34.6119
16.8025
16.6984
15.804
18.9055
18.6468
16.8213
2.40049
2.39032
2.03242
2.39017
2.32727
2.0503
2.20982
2.24886
2.41098
2.377
2.29602
2.56494
2.59464
2.2171
2.30647
2.32875
2.09472
2.42349
2.48569
2.01028
1.96703
2.07437
1.99163
2.59136
2.49974
2.00117
2.04836
1.98351
2.00073
2.5687
2.75508
2.3258
2.24932
2.5234
6.11622
3.4313
4.88205
5.57954
13.8797
4.66648
3.73309
3.93274
7.83881
8.78516
7.9458
15.3655
12.0509
6.56913
8.73275
7.18764
7.06828
7.99652
6.67129
8.28928
8.49102
13.9357
8.19937
14.5449
7.76788
7.74045
8.06308
7.14745
7.5944
13.463
8.85776
5.91471
14.6985
9.5352
11.3853
6.81484
5.81971
5.18386
5.72169
6.14392
12.5055
14.2148
7.88592
5.92895
12.6295
7.93537
5.68065
3.37896
3.67776
3.91044
23.9897
6.83965
8.3956
11.0123
22.1319
20.0072
39.6228
41.1066
20.8302
18.6957
20.4332
7.23806
5.63295
15.7331
15.6783
13.4153
5.3187
9.8516
22.125
9.21985
8.61203
24.1906
6.03642
6.75529
6.69946
6.41337
7.6572
7.58239
15.3634
6.4562
11.474
7.19982
6.85873
6.92009
6.55595
6.07585
3.32995
15.3367
7.04099
5.45852
5.72036
24.6884
4.40765
5.39294
6.64791
4.33761
4.55797
5.9739
7.10468
8.24265
17.9242
5.06926
31.8574
9.37683
5.11062
4.13778
9.01529
13.1637
4.84728
27.5644
5.32414
7.03112
26.6546
5.36474
8.10208
6.04437
6.26128
6.53288
6.22519
6.39992
5.79177
5.79026
6.0741
6.29499
6.02144
6.14396
5.95903
5.81973
8.68077
7.91853
7.58422
11.6263
4.70183
22.3351
3.86197
12.113
28.1486
5.15966
3.80654
9.60081
17.8664
39.4636
7.87389
7.88522
8.52435
13.0018
6.33072
24.6719
3.99933
4.58546
4.05104
4.39211
3.89453
7.44609
8.65484
12.8736
6.21924
7.16166
12.8956
11.7125
12.5896
12.7121
11.1368
11.4184
23.5994
26.3335
9.56172
11.0032
25.2153
11.0338
27.5955
25.7325
26.3941
8.54744
12.216
23.3406
10.6535
11.4213
27.8054
13.1975
7.87117
20.1067
5.05049
4.97464
19.7825
8.35514
9.59557
7.21297
9.30508
4.49392
4.78446
5.02843
5.28944
9.04977
21.5457
7.16264
16.5222
10.1362
6.95786
7.3213
10.9108
24.6857
10.4753
21.8233
9.72758
19.6212
7.90962
16.5744
6.28681
4.54162
5.33249
3.2654
3.70155
4.08318
4.56884
6.07939
10.1883
18.2897
12.4997
30.6139
17.4801
20.2763
27.0728
17.2186
6.05255
6.47356
10.2818
6.25471
10.6219
11.4936
17.4707
10.2294
9.51497
16.2569
9.77313
15.3683
7.45857
14.752
6.81205
4.19693
4.19158
5.47312
5.06431
5.47433
5.0043
20.9145
15.5484
24.1653
15.9497
8.44007
8.49298
22.528
8.24845
8.53529
21.7116
3.30359
3.30787
1.53039
21.7116
2.4328
2.40337
21.7116
1.40945
3.04644
4.61701
2.72639
9.86136
11.4615
12.8303
10.4329
11.912
22.387
10.3565
6.95275
8.64725
14.5207
22.387
4.52276
4.59389
5.1352
7.99888
12.8473
10.8319
9.57412
11.1795
25.7401
5.66477
5.82419
8.67783
7.92998
31.0557
9.87984
8.32951
29.521
6.34283
5.01497
18.5105
5.99277
10.4839
6.97615
18.5105
5.73684
5.79071
8.30799
6.37859
4.61384
9.38683
8.06771
9.99583
28.2784
8.23804
5.4825
15.7431
22.6574
16.2334
22.0691
4.34046
4.07251
5.28852
4.97385
7.28751
6.33993
10.9207
6.13471
6.73378
8.60318
23.1224
12.5375
11.3747
7.54638
18.6334
6.7477
9.27773
8.40175
15.9208
15.9208
18.1291
4.12239
8.60985
8.72567
4.86254
4.28758
8.24951
4.52166
4.57331
4.42142
4.41149
4.58365
4.60171
4.51022
4.57239
4.60168
4.6295
4.52251
4.43129
4.52076
4.48694
4.44921
4.56128
4.44312
4.41702
4.3637
4.36214
4.4421
4.37859
4.45816
4.3909
4.49464
4.47706
4.36352
4.42693
4.41116
4.4615
4.44893
4.25972
4.32305
4.33775
4.37401
4.31623
4.35137
4.38647
4.43609
4.26362
4.30542
4.26348
4.25847
4.32375
4.37024
4.33788
4.41975
4.34587
4.37027
4.34024
4.3737
4.33003
4.36042
3.71949
2.85009
2.86565
2.85911
2.84918
3.52802
2.87267
2.85051
2.73926
3.7991
2.69635
2.78517
2.7843
2.83048
2.6536
3.40763
28.9615
16.9399
16.2611
16.9399
13.3489
13.6155
13.1474
15.3445
13.4083
13.7729
29.4412
31.4957
26.8671
18.6673
14.4651
11.4747
3.56907
3.5116
3.77182
3.91108
3.70856
3.62733
3.55743
3.51044
3.59911
3.62934
3.66027
3.8515
3.8245
3.60173
4.68504
3.72597
3.64528
3.65171
4.55658
4.61249
4.57824
4.50795
4.47833
4.51565
4.52841
4.5437
4.54222
4.5252
4.55652
4.62738
4.54467
4.58435
4.60673
4.62427
5.8313
5.59656
5.9168
5.59287
5.36289
6.0149
6.3612
6.03633
5.86387
6.03639
5.87837
5.75897
6.01463
5.73923
5.81122
6.24671
6.33976
4.70934
4.86609
4.67286
4.70347
4.62576
4.59403
4.68015
4.80601
4.60439
4.50155
4.72097
4.55741
4.49503
4.50773
4.57387
4.44357
4.61894
4.57515
3.94427
4.40404
5.26383
3.53042
4.70362
3.90788
4.60871
3.71564
3.63442
4.17098
5.31786
4.88589
4.09163
4.39833
3.86139
5.26791
5.47488
2.17879
2.14509
2.18259
2.39574
2.0603
2.47837
2.18435
2.15301
2.15996
2.58859
2.26118
2.15076
2.19188
2.11243
2.64241
2.60281
2.87046
2.62523
2.95914
2.9384
2.93082
2.6902
2.62137
2.9823
3.00022
2.95099
2.66438
2.54206
2.53421
2.83079
2.6915
2.80648
4.25551
4.27157
4.29507
4.50319
4.55532
4.29117
4.29437
4.498
4.42568
4.47311
4.27051
4.53786
4.0626
3.52919
4.36785
3.34098
4.28462
3.93397
4.22794
4.19329
4.19201
3.0142
2.89523
3.00577
3.39948
3.27564
3.0326
3.31516
1.99229
2.65269
1.93174
2.44148
3.78035
3.43489
4.68481
3.24816
3.11721
2.51104
2.27895
2.07734
4.02341
2.23153
2.37224
2.65789
3.6458
3.62531
3.64806
3.68261
3.80497
3.69797
3.64596
3.60017
3.58614
3.67586
3.70602
3.6778
3.69417
3.76201
3.7666
3.67589
3.64031
3.71417
3.58877
2.49711
2.46882
2.20163
2.7959
2.43
2.71528
2.61334
2.29322
2.48045
2.16517
2.67691
2.55456
2.43986
2.45238
2.86445
2.66968
2.76159
2.83952
2.68259
2.76068
2.58353
2.51215
2.58503
2.41823
2.45529
2.69405
2.55909
2.498
2.54506
2.33669
2.39531
2.52753
5.0437
6.26193
6.38112
3.95831
3.95836
5.42883
4.72478
3.36362
3.67778
6.91326
5.57158
6.15487
5.79486
6.79936
7.01968
6.7876
7.15981
6.6261
7.01146
5.97637
6.04537
7.26677
8.80076
8.61162
7.28889
8.09834
8.03634
6.93765
6.6652
7.71474
7.6668
7.25224
2.73054
2.76812
3.00051
2.86013
2.86424
2.66116
2.79644
2.81424
2.79434
3.48302
3.86696
4.34298
2.60996
3.80252
5.15316
3.53901
4.39875
2.06548
3.14831
4.52958
5.94459
3.13292
3.50698
9.50616
7.02743
3.84395
7.16135
4.19447
4.44929
4.08298
4.30761
4.91791
5.60447
6.0989
7.11349
7.256
7.23399
5.79934
7.46388
6.54364
7.35133
2.07639
2.1317
1.86501
1.89482
1.9535
1.90505
2.02728
2.0522
2.47907
1.99318
2.17111
2.23689
1.85794
1.93575
2.30988
1.92587
2.16307
2.13056
2.05281
2.45832
2.53623
2.00654
2.58946
2.31633
2.76787
2.34249
2.31717
2.98177
2.80311
2.2073
2.55639
2.8159
2.63365
2.59674
2.91092
2.22725
2.3977
3.12082
2.66667
2.30943
2.07511
2.10291
2.68798
3.43447
2.1232
2.21244
2.82954
3.19285
2.14963
2.1229
2.44718
2.19867
2.21777
2.65763
2.73313
3.14197
2.26022
2.2216
2.40409
3.18015
2.16696
2.15076
2.41052
2.09196
4.17904
5.68239
2.08527
2.24644
2.5419
2.87798
2.2461
2.37448
2.81455
3.52196
4.16484
3.75064
2.38429
2.27441
2.16493
2.70516
2.32163
2.68289
2.66901
2.48607
2.52769
2.5298
2.4368
2.36292
2.45909
2.46005
2.53106
2.44996
2.34457
2.5616
2.6461
4.44739
4.73791
4.83751
4.53334
4.68759
4.73789
4.8467
4.60911
4.69933
4.81182
3.00503
2.66256
3.01725
3.3817
2.52126
2.49857
3.32968
4.05717
2.58384
3.29939
3.16411
3.17546
3.55571
2.57536
3.44412
3.1795
2.51043
5.74971
6.07188
5.91478
6.31233
6.00516
5.69714
6.21049
5.90759
5.75048
5.72228
5.8643
5.73703
6.02411
5.72541
6.10937
5.60504
5.71106
5.51477
5.66973
5.55111
4.76762
4.83442
4.74843
4.77664
5.02343
5.15567
5.60236
4.91982
4.91949
4.79524
5.48107
5.53476
4.75306
4.86376
5.09471
5.82147
9.63813
8.20721
7.24326
7.79179
11.8047
9.37743
12.0841
11.7402
9.64147
9.35513
11.9009
10.7016
10.3462
2.99062
3.21318
3.00858
2.83072
2.73825
2.78977
3.14908
3.02222
2.81911
2.86067
2.55085
2.87886
3.85425
4.25629
3.99283
3.89931
4.19104
4.10354
3.7689
3.73808
3.70392
3.77368
3.80003
3.77009
3.85695
3.82951
3.9226
3.85469
4.02801
3.85721
3.85339
4.00084
3.98828
3.77335
3.76935
4.00503
2.97331
3.46513
3.81973
3.51808
2.78811
2.79489
3.40199
2.63223
2.99982
2.95382
2.72568
2.70652
2.96994
2.76742
4.8667
5.41998
5.85101
5.34646
5.35606
5.6056
5.37835
5.07892
5.67652
5.5768
5.80327
5.63881
6.11838
6.00749
6.16112
6.1327
4.49721
4.91645
4.63397
4.40587
4.39866
4.48469
4.41857
4.38945
4.41756
4.50992
4.5903
4.48431
4.56362
4.57233
4.80645
4.64693
13.6864
11.9842
12.8769
12.1875
14.4179
11.6624
5.78609
6.35217
5.9286
6.32893
6.1044
6.87572
8.81338
10.783
11.1267
8.41964
10.2963
10.4235
6.80058
10.0291
6.67518
7.63071
7.34508
7.07398
6.83734
7.15365
7.73255
7.37611
6.89876
7.3126
7.38233
7.05735
7.49224
6.96426
7.13263
5.00253
5.32031
5.29622
5.32752
5.93661
6.30263
7.16676
6.06467
7.49212
7.91953
7.47848
6.69098
8.47921
8.98032
3.73237
4.13159
3.624
3.71766
3.59509
3.80537
3.4214
3.23396
3.95143
3.47387
3.6117
3.22635
3.38482
3.21639
3.24164
3.19249
2.381
2.42532
2.31985
2.34751
3.58536
3.67265
2.18291
2.85755
2.88404
2.18897
3.48507
3.28044
4.09065
3.22464
3.23424
3.74558
3.63685
4.35917
4.48642
2.6593
3.32062
3.00602
2.85788
2.74953
3.84499
3.13249
3.35078
3.59437
3.41257
2.58988
2.62856
2.89153
2.6673
3.56715
3.34014
2.77407
3.11908
2.88513
2.99519
2.62826
2.74242
3.11087
2.80368
2.76938
8.26018
7.18937
7.20254
8.12852
8.5155
7.54711
7.38229
7.57656
7.54361
7.47122
7.61412
7.44686
8.21871
7.98702
8.07466
8.3281
8.04092
7.83755
7.40043
7.85856
3.11418
3.07532
3.03866
3.00822
3.04172
3.19833
2.95955
3.04219
3.17807
3.051
3.01902
3.013
4.77284
7.04803
24.3661
5.39389
18.6755
6.369
11.398
20.7761
22.3665
5.12644
11.5433
14.2984
23.9663
6.64222
11.3874
3.95627
8.34904
5.26141
4.63118
8.06128
9.50149
7.48841
4.57918
3.87712
3.8067
12.2633
14.2619
13.5502
15.1087
3.76624
3.91788
3.77247
3.62081
3.74374
5.53559
6.21231
5.15908
1.97617
2.27311
1.8376
1.97517
1.84985
1.79805
1.7735
1.8439
1.80714
1.81406
1.92995
1.84689
1.83768
1.82685
1.82819
1.82136
5.68233
5.44375
6.28784
5.92037
10.9259
9.07884
5.06459
6.88539
8.49176
7.56423
8.37211
7.42992
3.79949
11.6361
13.617
9.68946
12.4654
4.54128
2.78826
9.62458
2.85857
8.45182
16.6508
4.74178
8.11253
4.05434
9.89028
18.8417
10.0505
2.69795
4.37336
5.14494
19.8026
4.47624
6.56943
7.99776
12.6542
4.15384
8.05098
3.71644
21.1938
5.85609
7.1011
25.3807
5.37018
8.47148
7.77731
7.71857
16.2212
5.64356
6.60345
11.1915
15.174
4.49918
3.98304
8.67255
3.86111
8.84372
16.119
8.70282
3.50562
3.91061
14.9751
9.37218
3.86877
3.52645
4.35759
3.64216
2.60549
3.06359
2.76802
3.72164
3.86082
2.33715
2.46814
2.49291
3.44365
4.25818
2.84124
3.07355
2.4661
3.38745
3.53141
4.342
3.67808
4.09239
4.12914
3.90855
3.94654
4.67695
2.79064
3.62855
4.25997
3.96832
5.95085
8.47948
5.27163
11.8945
11.5777
10.9853
10.7647
12.2766
10.621
10.1897
10.7778
11.1108
11.0537
12.3956
12.9164
10.2063
10.435
10.8145
11.2212
10.9107
12.3867
11.6163
10.8037
8.11016
10.0833
6.88726
6.74901
10.8522
10.8678
18.1481
15.7943
6.56872
6.95339
8.03445
10.3388
11.3729
15.7026
8.09011
10.1186
6.48518
6.55334
7.32382
5.21295
4.50456
4.41429
4.07705
11.5656
15.4269
10.1457
12.7259
4.98625
4.48138
11.7288
7.54053
4.80104
7.50624
13.85
8.43908
6.63169
11.5606
6.61344
11.8119
2.29366
2.27468
2.70106
2.34094
2.65778
9.08501
11.6134
5.09526
5.47708
3.72389
3.46951
2.68511
3.50829
3.2773
6.4331
3.13996
2.59595
2.33513
3.20708
7.61858
6.42992
6.59333
6.65976
7.90058
11.3526
6.7073
6.40099
6.06969
6.99636
7.71621
13.0773
11.2118
6.92058
7.60345
9.90003
24.4813
22.8347
24.0491
26.0454
30.4431
27.4808
30.336
43.4262
40.992
36.5483
32.3049
31.6982
44.7037
33.7528
32.5195
31.2404
38.9019
38.7572
39.4793
29.3602
7.9439
9.56972
7.81408
10.0936
6.25531
6.66821
4.24773
5.26676
11.9235
8.12555
16.9764
9.27904
4.66317
4.44094
14.0434
11.0308
16.9313
8.77716
18.9903
6.5233
30.6401
37.522
41.4723
55.8866
42.0922
29.8297
24.6174
39.5087
47.1109
41.9993
45.3361
35.6073
62.5733
41.0425
79.0112
80.9928
55.2754
3.23708
11.9313
6.89682
31.7415
6.01689
5.78399
8.42274
7.64338
39.2153
7.47377
1.98557
21.1246
12.1233
11.5939
15.2061
14.5438
13.1314
11.6021
10.9361
10.6827
14.0161
15.1379
12.5946
12.9307
12.8405
14.1866
11.5749
12.893
12.8152
12.0098
15.4357
11.2165
11.3266
5.80248
5.69196
5.48748
5.62535
6.31759
5.86703
6.30423
5.73602
5.51254
5.6323
5.58793
5.47003
5.41117
5.36354
5.82547
5.67966
5.59561
5.49664
4.8224
5.25889
4.81044
4.98307
5.09042
6.30942
4.77422
4.95427
6.07944
6.95537
5.13324
4.84739
5.0755
5.91045
5.15897
6.01641
6.43512
6.43557
6.07113
5.7091
6.54848
5.57064
6.33797
6.22941
6.34923
5.60551
6.23875
6.21915
6.25639
3.15105
3.22371
3.18687
3.32815
3.08445
3.04317
3.16677
3.14417
3.49597
3.64961
3.13938
3.15316
3.20092
3.30444
3.50686
3.43234
7.12197
7.17519
7.31114
7.11908
7.08427
8.11296
6.96983
7.06638
8.47689
7.27686
6.59288
6.42096
7.12183
7.8548
7.68813
7.22262
7.25878
21.8379
21.9962
16.7871
18.1164
19.6366
21.9354
25.1972
25.5061
18.64
19.7754
25.5625
30.1079
24.8683
26.6352
23.7595
25.1515
24.129
7.38278
5.88935
5.44126
7.93116
5.29975
14.0395
20.5049
5.42933
11.7318
11.8701
9.0655
10.4091
11.9111
5.91419
3.37503
10.2393
26.5196
4.03317
8.27781
6.79528
5.6373
4.63851
4.4699
6.87569
6.564
5.27654
5.16685
4.92833
4.81888
4.78055
5.00399
4.65296
4.49507
4.86145
4.59529
4.64057
4.86348
5.26342
4.68814
4.68552
3.75367
3.49017
3.24702
3.42853
3.96069
3.37497
3.30487
3.30211
4.20629
3.29026
3.42757
3.51144
3.83272
3.43752
3.18482
3.10828
5.36332
4.38716
4.77902
5.66053
4.70222
4.24535
8.82212
5.74575
6.12563
6.08635
14.0124
8.08097
4.93656
8.95216
4.28519
7.18019
8.86468
13.7526
16.273
10.0255
14.4833
16.8104
10.6842
15.3349
11.2303
7.8487
5.83391
4.54405
14.59
9.72488
11.0729
3.03468
4.34688
11.4197
3.89174
10.362
9.45255
3.79622
3.49804
3.28066
8.06331
5.53123
5.49686
5.42833
6.72639
5.55071
5.53861
6.55273
5.63843
5.66721
6.60685
5.64908
5.5117
7.56794
6.6753
10.0254
6.03843
7.08438
8.64443
10.3049
9.03204
7.901
6.98139
5.54419
4.42503
4.51215
4.69603
8.39335
6.95025
7.27055
6.91002
6.50027
4.19333
6.17985
7.60442
7.67716
18.2233
17.6384
6.37311
6.44615
6.90246
20.6816
8.43277
12.1369
7.46857
3.3154
9.00852
14.7442
6.11674
4.81312
4.04226
9.63559
8.40653
14.2452
16.3075
6.67609
9.10043
9.96251
4.14334
6.15136
5.78232
4.41905
4.39907
9.56939
8.70406
10.069
15.7743
6.94115
10.2909
4.4503
4.14518
7.77969
4.30865
4.33894
4.31715
3.79365
4.34691
3.60723
3.47261
3.55749
4.4736
3.3524
3.19977
3.57909
3.48674
3.13583
3.0858
3.21167
3.13834
3.102
1.9747
2.00564
2.04238
2.0221
2.00654
2.14211
1.9568
1.9493
1.99737
1.97101
1.94692
2.11942
1.99422
2.07485
1.97257
2.0652
1.98638
2.00007
2.02629
2.34582
2.1789
2.00074
2.43458
2.16216
2.12581
2.09731
1.85164
1.69108
1.62623
1.87308
1.99455
1.60544
1.60676
1.7973
1.83329
1.60287
1.6858
1.67224
1.68761
1.67351
7.39085
7.11955
8.80843
9.28133
8.07593
9.00065
7.74516
6.69564
7.50218
8.17442
7.14522
7.11347
6.86826
6.36822
8.98022
7.51875
8.56171
3.94401
3.46234
3.95526
7.65687
6.32959
3.46511
3.75544
3.7425
3.30236
4.625
5.09336
7.21974
3.09921
3.02186
5.2249
6.51205
2.53523
2.67393
2.66452
2.69418
3.0085
4.04018
2.96882
9.71622
7.49425
3.40325
3.27343
4.8937
5.6636
8.34548
6.07673
6.33655
7.18259
8.03562
15.171
20.953
10.7326
20.0733
4.43562
7.47535
4.22173
1.81688
1.77073
1.82376
1.77435
1.68701
1.836
1.77904
1.75293
1.93033
2.00839
1.88192
1.83356
1.77123
1.84537
3.25215
3.18842
2.83499
2.81278
4.04199
2.6076
2.79478
3.82936
4.42859
3.81746
4.68899
3.56343
3.11745
3.88759
2.48678
8.30136
4.55615
19.3013
19.3013
4.1787
19.3013
5.0707
5.14495
9.88067
5.38836
5.78091
4.94425
4.71891
4.27387
7.29234
4.48054
4.5575
5.4304
20.39
24.2411
25.6168
20.3904
21.2807
21.4983
23.7106
19.6306
23.4755
19.5383
9.99485
10.6613
7.65505
11.8172
4.29161
3.89744
3.49986
4.7952
7.17497
8.76155
10.4608
10.0105
8.77381
3.68685
3.8582
2.76702
7.96564
9.51345
3.85452
3.75101
3.64599
4.04992
4.51704
6.98888
4.38864
5.08899
4.82881
12.2309
5.41825
3.48768
3.5071
14.3524
6.96583
14.4282
4.65961
3.36841
3.09917
5.7158
5.77923
3.59587
7.99527
7.87114
7.45942
8.00149
7.59497
7.28363
7.6698
7.53861
7.09014
7.45094
7.15722
7.49965
7.77927
7.52922
7.15646
6.78204
7.02002
6.74184
7.22802
7.88194
7.85301
7.46876
7.72129
7.30204
7.21382
6.55974
6.03758
6.35215
6.06344
7.19671
7.24834
8.2177
7.83009
5.99107
5.99744
6.14328
7.10816
29.2614
29.9928
24.9818
23.6183
38.8025
31.9792
36.7127
30.9435
29.011
45.8807
35.6811
37.5558
37.195
44.015
58.1723
55.9105
4.68194
4.88357
4.87842
4.66145
4.62357
4.66626
4.68956
4.6101
4.8111
4.80501
4.55241
4.71874
4.56353
5.44978
5.18969
5.49086
5.47091
5.3908
5.1004
5.76522
5.53716
5.71743
5.47482
5.63371
5.75733
5.34609
5.49913
5.36633
4.87846
4.95121
4.75351
4.82771
5.1562
5.0649
4.73558
4.76215
5.10699
4.91933
5.00998
5.04279
4.93445
4.95658
5.09185
5.26799
9.9589
9.91198
9.72866
9.10342
9.25552
9.61239
8.94461
8.78662
9.22875
9.37201
11.2151
11.0209
9.50683
9.18744
9.32311
9.403
10.8545
9.75639
9.91463
9.73024
8.2364
8.04284
7.67774
7.31164
7.9271
7.75744
8.56205
7.89953
8.84038
6.63908
7.08159
8.62202
7.38002
8.12859
8.64384
9.59476
8.88334
8.74689
9.78743
9.94554
10.3937
9.28452
9.66013
10.6682
9.42345
11.4215
12.1148
11.481
9.85812
9.00265
10.4373
12.5139
11.0685
12.8427
11.9797
12.1895
10.1463
13.5955
12.1918
11.1588
10.7149
11.5608
12.4191
9.96828
9.72815
9.56522
10.3419
11.1165
3.43036
3.17755
3.11496
3.07829
3.57627
3.46646
3.4332
3.59589
3.65932
9.17642
9.57269
8.48572
8.5208
9.15232
8.35472
8.2649
8.70112
7.93598
7.77683
7.86104
7.82661
8.09691
8.87681
8.34367
7.89826
8.1894
8.37707
8.70882
9.23802
7.88072
8.6067
3.7538
3.80732
3.74683
3.75952
3.77668
3.91585
3.8109
3.65165
3.79592
3.70426
3.79352
3.66977
3.80779
3.6279
3.63812
3.67232
3.71066
3.68474
3.70341
3.68456
4.97927
4.76784
4.87072
4.67645
5.0154
4.76706
4.84522
4.94377
4.87528
4.78156
4.81026
4.62373
4.69442
4.74016
4.69945
4.93181
4.83733
4.95237
4.63359
4.8214
4.68733
4.92265
4.65348
4.51024
4.59715
4.61914
2.77465
2.96421
2.93459
2.80032
2.63243
2.6741
2.46552
2.57533
2.92033
2.53281
2.98165
2.73338
2.69071
2.41092
2.45723
2.69791
2.49276
2.47968
2.47146
2.49059
2.50807
2.5513
2.54689
2.70878
2.489
2.54891
3.23102
3.27876
3.36691
3.34758
3.14927
3.18249
3.20176
3.69369
4.12391
3.65875
3.57436
3.22874
3.27777
3.30408
3.3664
3.33153
3.48113
3.28477
4.2262
4.30411
4.4811
4.25518
4.16379
4.39475
4.42162
4.13228
4.14795
4.25269
4.33931
4.15149
4.08947
6.45902
6.97997
6.53102
6.21668
6.53953
6.93413
7.44581
6.79873
6.75126
6.42727
6.58497
6.99655
6.63748
3.70771
3.23694
3.56836
3.64975
3.45941
3.31951
3.5034
3.54892
3.53024
3.79708
3.82215
3.67978
3.77727
2.48679
2.22249
2.23051
2.24089
2.25824
2.45864
2.44758
2.47498
2.25349
2.23843
2.31298
2.33481
2.24732
2.25145
2.29479
2.24599
2.19229
2.24097
2.32178
2.34136
2.26614
2.28864
2.47017
2.45379
2.7105
2.32118
2.41266
2.36858
2.33115
2.42053
2.36939
2.55195
2.53461
2.4821
2.46951
2.50152
2.5621
2.54244
2.46181
2.43939
2.52263
2.59133
2.50007
2.52724
2.60029
5.64337
5.95069
6.07567
5.27967
5.40684
5.29487
5.35788
5.04628
5.11717
5.20519
4.87834
4.74722
4.65727
4.9198
5.10839
5.30257
4.85259
5.10098
4.93898
5.15588
5.1751
4.8708
4.88335
5.00982
5.56666
5.68693
5.67392
8.23795
5.6837
5.34548
5.45511
5.44436
5.53516
5.70663
4.60628
5.02938
5.22174
4.88705
5.9542
4.50531
4.87864
4.96006
5.42766
4.81928
5.10879
4.83896
4.87505
4.93061
4.69452
4.63708
4.67495
4.86176
5.11253
5.02126
5.22101
4.82929
5.06613
4.50719
4.57158
4.32219
4.35854
4.51634
4.6506
4.63503
4.67485
4.97135
4.97471
4.66091
4.58099
4.7194
4.828
4.76558
4.67416
4.83051
4.82189
4.76721
17.117
15.8008
19.7465
14.2162
14.5046
18.3711
19.8413
16.3819
18.5636
17.31
14.4887
18.6675
15.6233
4.14543
4.21982
3.94349
4.02804
4.08226
3.87728
3.83241
4.01027
4.03214
3.93288
3.8769
4.23539
4.1301
3.85202
4.07339
4.04131
4.521
4.08575
4.66011
4.45979
4.03817
2.39051
2.40976
2.39174
2.44167
2.44249
2.41192
2.4864
2.48919
2.43933
2.37122
2.52081
2.54781
2.37519
2.42961
2.38702
2.42812
2.46504
2.48477
4.26119
5.26533
4.33225
4.60945
4.61692
4.88118
3.56423
3.50596
4.90094
3.58847
3.89179
5.39475
4.04001
3.7661
3.83162
3.64608
3.55023
4.25595
4.56126
3.45276
4.50325
3.81125
3.58492
3.48472
4.14262
4.55738
4.60013
1.76944
1.83563
1.85141
1.7397
1.85739
7.80623
8.08536
8.22327
6.13938
9.86099
6.0455
11.5434
13.2669
14.4388
12.0678
15.7401
12.3765
11.3431
13.4546
7.56675
6.40828
6.48417
6.61015
6.51628
5.25399
4.06319
4.59795
5.989
5.46896
3.9248
3.72821
6.17927
6.45856
3.91731
3.79641
4.10376
4.52841
4.47571
4.93157
6.362
7.34428
6.5988
9.8146
12.8151
2.23482
6.91994
3.39098
4.40536
19.0286
31.2061
21.1733
21.2201
9.88234
4.59132
8.01487
19.8953
18.4073
6.93616
4.91276
5.166
4.2464
4.06778
4.20157
3.88019
3.99824
4.52714
5.62231
5.25423
3.58884
4.34945
5.13894
4.46008
5.14424
4.02043
4.85697
4.71341
3.69396
3.74633
4.66473
3.46797
4.57349
5.00993
5.36341
5.07409
3.53786
3.41759
3.56145
3.61411
4.0783
4.03061
9.08317
9.8975
9.74865
9.279
9.49732
9.38153
11.4865
8.92255
10.0751
10.6358
6.75839
6.69145
6.87489
7.89733
9.96151
7.75725
10.2651
10.0085
6.68079
8.0847
4.96196
6.71085
3.64481
3.63597
3.61539
3.57744
3.57931
3.51693
3.59615
3.62969
3.60315
3.60436
3.55044
3.50173
3.49789
3.60886
3.58684
3.53791
3.56324
3.53592
3.45405
3.50201
5.72742
5.93092
7.04152
4.64439
5.6147
4.75309
7.15322
5.09379
5.49734
4.45908
4.52418
5.44923
4.67496
4.52053
4.87274
9.06539
8.50817
8.62263
8.79127
9.96193
7.79667
9.03525
9.37973
3.03376
3.15043
3.11738
3.14422
3.10373
3.0986
3.13654
3.22218
3.06122
3.05948
3.16472
3.07866
3.57315
3.66854
9.83963
5.40537
3.40394
4.04029
9.33049
6.94935
9.57241
10.0584
15.2106
7.51349
11.5319
17.3601
7.16801
4.4667
4.45145
4.88633
2.98974
3.03706
3.00343
3.01723
3.0807
3.03463
2.99559
3.16198
3.08101
3.07379
3.12541
3.18395
3.05035
3.03651
3.06558
3.17268
3.22216
3.1015
1.88061
1.8831
2.03431
2.07794
1.94589
2.02933
1.8635
1.88325
1.93205
2.14929
2.00801
1.92102
2.34667
1.95484
2.00565
2.01898
2.02564
1.91331
1.92017
2.08454
2.02416
1.90014
15.826
14.4471
16.3195
18.9282
15.1687
18.0743
15.91
14.3575
17.0397
18.8474
18.4886
17.0446
16.7717
15.6474
17.0034
15.259
7.3874
6.98478
6.88291
7.78314
6.26493
6.08348
6.77886
5.98361
5.15191
5.27004
5.57795
5.50309
5.7099
5.05601
5.28522
5.60532
5.33965
5.40128
2.2651
2.73255
2.68433
2.30015
2.14231
2.0461
2.42971
2.5095
2.3839
2.26912
2.1723
2.20604
2.11401
2.06145
2.19741
2.10485
3.90309
3.87443
3.95178
3.89352
3.74051
3.89664
3.87862
3.89259
3.91534
3.90301
3.86621
3.91933
3.90608
3.87983
3.83034
3.82408
3.79173
3.7891
3.7365
3.7466
8.82337
8.62334
7.62623
6.62857
5.05414
7.16646
5.79351
6.27971
6.71428
7.94823
5.11636
4.86562
5.88257
6.09559
5.36703
5.66633
3.66937
3.76124
3.50363
3.55334
3.05389
3.48973
2.81398
3.32936
2.83899
2.63421
2.77849
2.62893
3.54148
2.98723
2.49878
3.22191
3.9384
2.12935
2.06053
3.4196
3.19072
2.93889
2.0153
1.93437
2.64465
3.09272
2.25625
2.15434
2.61994
2.82212
2.83376
2.84097
3.06719
3.1135
3.06561
3.12803
2.80348
2.87938
2.68788
2.76078
2.78948
2.74381
2.97867
2.9744
2.72044
2.87187
2.94465
3.73467
3.98005
3.38702
3.1387
4.46261
4.05137
3.49699
3.48224
3.90489
3.12369
3.16933
3.07238
3.09375
3.23898
3.26238
3.10808
3.22348
3.16111
3.63545
3.32038
3.20945
3.23455
3.30017
3.30904
3.26786
3.20199
3.32321
3.30339
3.24291
3.31867
3.23438
3.24903
5.9288
5.62914
5.69303
5.83007
5.56845
5.75008
5.85122
5.77065
5.68494
5.70448
5.68324
5.52523
5.50822
5.51335
13.302
13.6477
17.8938
17.4837
18.3758
18.4895
13.2139
11.8368
15.4283
16.3644
13.5942
16.5857
14.4312
15.0429
1.89063
1.91306
1.9339
1.94726
2.25
2.40257
2.24508
2.37646
1.93607
2.14308
2.1155
2.10773
2.22709
2.08876
1.98453
4.84251
5.63575
3.89855
2.3941
4.20582
5.44969
5.94826
3.60732
3.99311
3.63555
3.67886
4.01605
3.70359
3.76132
3.62194
3.4851
3.74647
4.42768
4.62927
3.98118
4.22824
3.94245
3.65446
3.85405
4.15754
3.70675
3.74129
4.10605
3.72665
3.65685
3.71185
3.52755
3.51839
3.54133
3.65905
3.60965
3.57273
3.61458
3.43908
2.52253
2.561
2.69894
2.70673
2.85634
3.25743
2.61463
2.52461
2.533
2.82743
2.59924
2.52085
3.21488
3.05418
2.90727
2.88796
3.42404
2.59532
2.42855
3.58975
3.4062
3.39998
3.16424
3.64648
2.37248
3.03921
2.49243
3.44343
3.71202
3.18166
3.49669
3.83787
4.03963
3.46899
4.01481
3.80159
4.14832
3.94855
4.24037
4.19363
4.10675
3.45072
4.00366
3.21863
3.26244
3.91878
3.70124
3.56158
3.39877
4.0841
4.11949
4.18276
4.11676
3.98323
4.09874
4.00124
4.03474
4.04376
4.02626
3.96273
3.98179
3.98367
3.93609
4.03475
4.0419
3.97367
3.94185
3.95054
3.92525
6.88976
6.5973
5.31488
5.70585
7.32641
6.25261
5.53457
6.55778
4.93614
5.0542
5.01978
6.71604
7.84235
7.43081
7.49932
7.55272
7.66696
7.45764
8.02032
7.87401
7.33242
7.36748
7.05133
7.107
7.03855
7.95739
7.65445
2.26792
2.33512
2.28578
2.26063
3.03034
3.00561
2.93989
2.80068
2.81378
2.43851
2.63898
2.19343
2.21412
2.56974
2.55023
2.41752
2.90616
2.89556
3.37194
3.13111
2.99246
3.90846
3.84442
4.35591
4.20369
3.6097
4.0941
3.76703
4.10013
6.86709
6.1135
6.27182
5.89424
6.44037
7.86438
5.98745
6.0687
5.90351
6.0985
6.58843
8.07754
6.12876
14.6216
15.4028
15.3438
12.7156
13.6957
12.9622
12.1376
9.2031
9.98202
15.4065
14.7805
16.0641
16.2921
10.0235
9.3252
13.8592
11.5454
9.89105
11.2704
13.945
4.75717
4.73596
4.62996
4.71339
4.53465
4.46701
4.94493
4.5885
4.65373
4.58038
4.93594
4.65124
4.66668
4.91227
2.73931
2.11161
2.15479
2.15236
3.72552
5.52173
3.00564
2.77877
3.47989
3.96269
2.1858
2.41258
3.24063
2.8097
2.06824
3.17294
2.58851
2.22977
6.05927
6.59864
4.59193
4.59003
6.07875
6.48242
6.0167
4.7934
4.93814
5.04479
4.73423
4.7911
6.20886
6.63976
7.05005
6.12799
6.80023
5.91198
5.70977
5.14248
29.4498
6.70718
13.7708
6.84022
9.34009
2.37284
2.33788
2.60633
2.73171
2.27626
2.37165
2.29791
2.26364
2.78089
2.53619
2.43007
2.54386
2.26072
2.39312
12.3059
12.4692
13.0906
18.5822
15.9927
18.3877
6.16571
7.78758
11.9018
15.7242
6.18578
4.76406
4.87142
4.95322
4.88496
4.62425
4.63937
4.7584
4.73663
4.86515
5.0118
4.87613
6.92153
7.05923
8.28196
7.88373
6.52289
6.109
6.18818
7.66411
6.74037
6.30664
6.45119
5.837
7.62714
8.23993
7.50019
5.6013
5.71993
5.50433
5.44173
5.62695
5.50726
5.22397
5.32742
5.28013
5.28354
5.53024
5.79034
5.39607
5.50134
5.43722
5.38788
5.6942
5.8308
5.40614
5.62689
5.51238
7.79987
7.42093
7.45343
7.0318
6.79638
6.35152
7.65786
8.12046
7.1985
6.50924
5.93671
6.83528
5.90071
7.37358
5.88101
7.04165
6.4311
8.26987
8.21304
7.92869
7.80764
8.50784
8.90615
8.37184
9.43655
9.81333
8.78958
8.24018
9.13397
8.55706
7.49085
8.16289
9.08795
7.98899
8.27671
7.70425
8.34836
5.82916
5.97055
5.77224
5.85362
5.59522
5.79053
5.95138
5.69344
5.74212
5.90425
5.88671
5.91507
6.12696
6.13627
2.66644
3.02618
2.85119
3.00077
2.92737
2.80748
3.45712
2.79235
2.87713
3.01296
3.78796
2.99864
2.84544
3.92859
3.25399
3.81133
4.31778
2.87178
3.17474
3.5485
5.55368
3.76409
4.69825
3.28665
4.82492
2.08322
2.12319
2.28609
2.04985
2.17778
2.19218
2.09986
2.16239
2.2246
2.1301
2.03364
1.99054
2.0614
1.99647
2.06807
4.05066
4.12152
3.57859
3.32053
9.99673
11.1461
3.29049
11.7184
3.71887
3.95573
3.71878
6.54246
5.74364
10.5946
12.2317
8.26991
9.62406
8.52992
5.69637
5.87828
5.8018
5.66956
5.96555
6.51816
6.23245
6.047
5.81507
5.64379
5.6647
6.34124
5.8239
6.45028
5.98387
6.56907
5.75114
5.69981
6.45842
5.92695
6.29476
4.58911
4.50153
4.50607
4.48546
4.52097
4.51656
4.58939
4.60936
4.54221
4.55391
4.60998
4.69922
4.80959
4.72566
4.6848
3.6246
3.69102
3.64777
3.633
3.68171
3.75406
3.7113
3.60593
3.95524
3.7702
6.74262
6.8955
7.16476
6.96444
6.54688
7.07639
7.53037
7.32307
7.31795
6.85485
6.74859
6.99671
6.15079
6.37326
6.8505
5.57158
6.07086
5.63448
5.47062
6.4107
6.07086
5.32853
5.82623
5.85105
6.93662
6.35835
5.9161
5.55816
5.66536
6.6446
7.07307
5.88826
3.00522
3.09708
3.10562
3.10341
2.60186
2.89977
2.57413
2.56923
2.54662
3.22318
3.33679
3.1343
2.59224
2.8232
3.38286
44.328
15.0161
20.9558
10.039
17.8922
35.7637
31.7617
26.3129
12.974
11.5598
10.039
23.669
15.8514
14.8705
27.3268
4.93541
4.79349
4.92349
4.87401
4.71768
4.83877
5.36022
4.948
5.70772
5.09004
5.47095
5.03138
4.91414
5.12495
5.02229
4.81508
4.786
4.85939
5.04075
4.66469
4.62748
4.96959
4.87542
4.96965
4.83396
4.80949
4.85928
4.69629
4.75366
17.3565
12.5608
19.308
33.1291
24.341
18.9229
17.0087
38.8831
19.2293
3.08811
2.87195
3.16093
3.13098
2.83458
2.85508
3.2263
4.02724
4.01277
4.90914
4.83208
3.5933
3.74617
4.58404
3.28189
4.16992
4.21724
3.30552
59.7774
66.9507
81.159
38.2148
64.7922
75.083
105.35
101.138
45.0829
89.1216
60.3073
61.1963
85.1142
88.1012
122.341
124.519
212.202
76.5919
92.2334
122.495
204.111
62.2228
65.9203
62.0295
81.1258
63.6792
121.402
46.9798
46.1196
82.0666
62.5248
8.66712
5.60334
7.0456
20.2011
8.28882
25.9669
4.82734
8.28862
14.6389
7.95448
9.50751
9.27938
10.5369
9.53758
10.0905
8.89165
8.39202
9.6939
10.6173
9.74736
10.587
10.4501
9.85278
10.2957
9.90907
14.9589
15.0184
15.2524
13.9353
16.9691
17.1584
14.403
13.2129
17.1553
14.7828
15.3958
11.6032
12.6521
10.7851
13.7035
9.11342
14.963
13.1002
8.56378
24.936
23.4768
32.872
28.7041
28.0428
26.8666
28.3091
34.705
37.1006
35.9942
36.8187
41.8265
45.2206
8.35823
7.4691
12.8644
15.5081
7.94054
8.3912
14.7139
11.4519
7.49357
7.28041
11.8855
8.51166
8.07861
8.25809
9.6676
14.1151
16.171
19.6238
15.4238
19.071
16.3782
10.4463
22.8556
13.1776
22.5287
23.2161
22.4177
28.2481
24.9046
9.44659
8.58871
20.67
26.5371
28.2315
20.7143
3.35193
3.31555
3.22936
3.27866
3.30419
3.34319
3.37177
3.32396
3.1889
3.18842
3.32323
3.37008
3.28448
3.37314
3.3515
3.71478
3.56593
3.58558
3.25565
3.45568
3.61129
3.31261
7.35132
6.86998
7.19083
6.73715
7.12935
7.33552
7.81342
7.68538
7.34554
7.03294
7.12114
7.67086
7.11168
7.81253
7.50209
7.40859
7.16747
3.57326
3.7664
4.07613
4.06368
3.90609
3.70482
3.54534
3.58849
4.16576
4.39436
4.90832
4.81186
5.40784
3.25359
3.81164
4.03173
3.96345
4.30226
3.91378
14.9308
12.8709
8.21925
8.50127
7.7084
7.49826
8.4503
10.1717
15.97
16.2897
15.1424
15.5133