/*--------------------------------*- C++ -*----------------------------------*\
  =========                 |
  \\      /  F ield         | OpenFOAM: The Open Source CFD Toolbox
   \\    /   O peration     | Website:  https://openfoam.org
    \\  /    A nd           | Version:  10
     \\/     M anipulation  |
\*---------------------------------------------------------------------------*/
FoamFile
{
    format      ascii;
    class       volScalarField;
    location    "11";
    object      p;
}
// * * * * * * * * * * * * * * * * * * * * * * * * * * * * * * * * * * * * * //

dimensions      [0 2 -2 0 0 0 0];

internalField   nonuniform List<scalar> 
75457
(
-35.8851
-32.7262
-28.8625
-26.3515
-22.0418
-23.3365
-31.786
-31.5414
-20.9116
-15.55
-19.2672
-20.9613
-20.3661
-18.1493
-4.26249
-4.67812
-4.38111
-4.56854
-5.00429
-4.53906
-4.06206
-4.69627
-4.72842
-4.99714
-4.77788
-5.08396
-4.84025
-1.20626
-1.19678
-0.772643
-0.523128
-0.676581
-0.755096
-0.955218
-0.390569
-1.30457
-1.19474
-1.40235
-1.55931
-0.595917
-0.835903
-0.597032
-1.00233
-10.5174
-10.2966
-9.67627
-9.77996
-10.1182
-5.58516
-6.07285
-6.42189
-5.88294
-5.96363
-6.07624
-6.45814
-6.5453
-6.25654
-6.4559
-5.87392
-6.10499
-5.91374
-5.85421
30.2208
30.4854
30.2233
30.5523
30.781
30.8088
30.4643
30.5033
30.7672
30.5574
30.2964
30.5466
30.5353
30.2231
30.4251
-10.1266
-10.773
-9.17143
-11.1553
-12.1688
-7.25634
-7.3934
-9.40816
-10.0434
-9.59183
-9.31153
-7.75656
-8.61632
-7.42446
-7.08704
-8.3104
-7.3055
-7.47159
-7.63639
-7.66682
-8.02123
-7.61302
-7.43486
-8.63882
-7.86022
30.7753
30.6641
30.9263
30.9426
30.8082
30.6585
30.5784
31.0302
31.0325
30.645
30.6564
21.3601
22.0225
24.491
24.063
21.4236
23.0048
23.0369
22.5065
22.8636
24.5559
24.3402
24.8844
25.4244
24.1749
23.6133
22.4147
24.8382
23.8328
12.876
12.8385
12.2563
13.146
12.7386
14.2723
13.955
13.845
13.834
6.94559
6.48654
7.05071
6.59537
6.02992
6.53918
6.55962
5.61521
-8.06592
-8.10784
-7.50462
-7.7044
-8.09186
-7.74845
-7.45632
-6.96666
-5.42971
-5.48139
-7.01876
-6.74386
-6.27903
-6.98018
-5.8636
15.4839
17.0884
17.3306
16.6688
17.0896
13.3654
14.7498
16.3131
15.3245
16.2853
13.6074
12.2905
12.8817
-10.3904
-10.8636
-10.7347
-10.9366
-10.7127
-10.8448
-10.1577
-10.8374
-10.6983
-10.9359
-10.9197
-10.7424
-10.6645
-10.8065
-9.76191
-8.45863
-10.9398
-8.31051
-8.70206
-10.2557
11.281
12.0774
10.7249
11.4816
9.66112
10.4849
12.8626
12.5844
11.6516
8.85029
8.82685
-8.30427
-8.14697
-8.53873
-8.49178
-8.45613
-8.38334
-8.21331
-8.0398
-7.6177
-8.49793
-8.25797
-8.02363
-8.38243
-7.95424
5.24019
4.29617
4.69832
2.96911
3.53788
4.29193
4.18498
5.45103
5.03045
4.08255
3.45301
2.79104
5.07772
3.47525
-7.52898
-7.60934
-7.21384
-7.19526
-7.5289
-7.44983
-7.61357
-7.54983
-7.75193
-7.16849
-7.40658
-6.91996
-7.59844
-7.6527
-7.39123
-7.36821
-7.53785
-10.1672
-9.93607
-9.98472
-9.87756
-11.1904
-9.73826
-9.58841
-8.95516
-9.8493
-10.2869
-9.36086
-10.0203
-11.0827
-11.1776
-11.0234
-11.0569
-11.0586
-11.3015
-11.5729
-11.2623
-11.2628
-11.5268
-11.09
-10.9327
-11.1756
-5.81134
-5.59997
-5.8703
-5.33497
-5.3746
-5.23531
-5.06117
-4.98746
-4.98955
-5.43496
-5.75739
-5.63185
-4.89718
-5.32736
-5.24929
-0.390097
-0.18605
-0.203411
-0.446103
-0.162612
-0.143957
-0.56387
-0.721071
-0.0345645
-0.024072
0.451582
0.13558
0.0816735
0.476898
1.20274
0.49944
0.184128
0.68522
0.275193
0.309777
-0.0215711
0.0616257
-6.26996
-7.28175
-3.94595
-4.60929
-4.79744
-6.02236
-6.30035
-6.10288
-6.41287
-5.22479
-5.90324
-7.97482
-8.09893
-8.27051
-8.25318
-8.17811
-7.91332
-7.97256
-8.35188
-8.52877
-8.37022
-8.5981
-7.78291
-8.08583
-8.15584
-8.36162
-8.11453
-8.21864
-14.5342
-13.325
-12.8954
-14.55
-17.3887
-17.1562
-16.7883
-16.033
-16.021
-15.1944
-16.7299
-3.55741
-4.11852
-4.75508
-4.63816
-4.244
-4.39941
-3.80433
-4.60196
-4.69528
-4.14586
-4.15585
-0.187526
-0.0717768
-0.266457
-0.334463
-0.0896374
-0.0914629
-0.375966
-0.119038
-0.439657
-0.530995
-0.543266
-0.22249
-0.402579
-0.866352
-0.791478
-6.37654
-4.76854
-7.59594
-6.17353
-6.45136
-7.63592
-7.99155
-7.61493
-7.93369
-7.96813
-7.61375
-8.378
48.9771
53.7708
42.4017
45.0318
47.8254
49.8925
49.5592
52.3995
44.999
49.4123
47.6631
48.6787
44.7795
49.2419
43.5032
45.0024
46.9097
41.9578
33.7617
33.3221
34.0982
34.8218
35.7391
36.7105
33.9893
34.6087
37.0868
40.5786
37.3186
37.5125
39.1943
25.0246
22.2511
19.7024
21.3476
25.9456
22.6292
21.188
22.6062
22.2131
20.3174
27.6332
27.597
20.6964
22.2531
19.7066
25.9387
28.0442
28.0979
24.0954
24.0749
24.7276
26.058
-9.50939
-9.91996
-10.1491
-10.1541
-10.2639
-9.70152
-9.76486
-9.90066
-9.98451
-9.6394
-10.0517
-9.66738
-9.81662
-9.74566
-9.8903
-9.85234
-24.2905
-26.475
-15.4144
-22.86
-13.2751
-19.9411
-16.9935
-14.2494
-13.6188
-18.0851
-30.8852
-26.0664
-18.5405
-23.9059
-13.1983
-16.1694
1.1489
0.99258
1.16127
2.00135
2.37554
2.97693
0.803036
0.472881
2.12681
2.10158
2.98546
2.63947
2.36337
2.28339
2.12631
1.47456
0.738874
1.55013
32.9052
36.9517
35.5076
32.0997
33.4194
36.1746
39.7084
38.8222
33.6812
39.6818
41.3651
39.6183
35.7316
32.5158
33.3198
34.3572
26.009
25.3563
25.8596
25.6355
24.79
26.5726
27.1505
26.5345
25.901
26.8399
26.2803
25.4638
26.316
24.7381
25.4212
26.9523
27.4315
11.4579
11.3107
11.0155
11.3811
11.3597
11.4171
11.5253
11.5992
11.6234
11.4802
11.115
11.1722
11.6789
11.3384
11.4489
10.7338
10.7475
-5.31101
-6.15261
-7.6249
-6.71979
-5.8401
-5.90223
-5.61607
-5.61167
-6.29211
-5.86328
-7.30997
-7.46077
-6.50984
-5.06982
-7.15343
-6.28728
-6.19994
-6.90457
-4.43564
-4.47883
-4.31858
-4.27136
-3.78878
-4.02717
-4.21669
-4.2049
-3.70959
-3.87543
-4.02074
-3.67605
-3.5856
-4.00714
-6.49485
-6.10741
-6.86029
-7.68185
-7.73157
-7.10296
-6.87906
-6.80761
-6.66256
-7.60877
-7.6646
-7.50487
-7.12912
-6.55135
-6.87973
-7.61793
-7.76327
-7.91602
20.3585
16.0916
16.9298
23.7039
20.0102
14.1129
17.0543
17.2264
13.6818
22.0925
17.2257
14.317
-8.56452
-8.3399
-8.26154
-8.06318
-8.34945
-8.22938
-7.05802
-7.42126
-8.44853
-8.51219
-8.39617
-7.60273
-7.58294
-8.13723
-8.35101
-8.16725
-5.24884
-5.76465
-4.82952
-5.22887
-6.39199
-6.26516
-6.36809
-5.24715
-5.00774
-4.91346
-4.91915
-5.77988
-6.2878
-5.25711
-4.85573
-5.66794
3.71245
2.94836
2.28149
5.47978
6.3701
3.96721
4.66831
1.42691
3.0054
3.68405
5.27622
4.20229
5.26289
6.06877
5.80132
2.73658
2.83386
4.12466
2.21481
-3.0104
-2.10601
-2.95229
-4.36968
-3.49573
-2.54637
-4.1208
-3.70145
-3.01301
-3.30662
-2.95739
-4.17837
-3.10538
-2.71891
-2.00003
-1.64381
-1.65183
-2.40739
-1.93396
-2.21238
-1.9291
-1.83969
-2.43311
-1.68654
-2.14283
-2.04005
-2.63979
-1.58658
-1.66889
-1.66444
-1.51266
-2.09855
-4.85097
-5.4703
-4.5676
-3.21557
-3.67332
-7.3281
-4.80074
-4.51557
-4.50326
-5.62734
-7.0646
-8.11104
-8.42284
-8.68836
-8.26052
-9.2138
-9.59974
-9.21329
-10.296
-7.56636
-7.53691
-9.67891
-10.3474
-10.2155
-9.37887
-9.19425
-10.1878
-9.48758
-9.0937
-9.60658
-9.50089
-8.8316
-10.3552
-10.4074
-10.1703
-10.3443
-10.0886
-10.2097
-10.2827
-10.1165
-9.94861
-10.0246
-10.1963
-10.0023
-10.1142
-10.052
-10.1266
-10.0425
-10.1036
-6.64223
-7.0826
-8.47254
-8.12131
-7.39504
-7.96255
-8.16924
-7.8449
-7.56567
-8.1008
-7.28993
-4.33526
-4.73017
-3.25136
-3.01277
-3.9767
-2.75213
-3.10454
-2.60138
-3.86101
-3.45894
-3.27059
-2.96076
-3.51758
-3.13967
-2.94964
-2.89437
-3.2171
-3.14689
-2.58789
-3.08687
-2.87843
-3.21533
-3.18882
-2.80695
-2.81567
-2.92256
-2.60357
-2.88023
-2.71444
-2.52677
-2.77431
-2.46238
-2.70235
-2.84132
-2.55326
-5.91756
-6.18555
-6.00837
-6.00208
-5.6417
-5.00868
-5.91646
-4.84945
-5.58043
-4.36352
-5.17667
-5.58527
-5.6742
-5.35287
-5.09289
-6.41954
-5.43671
-4.96953
-4.7633
-4.70918
-6.98304
-7.11084
-7.30033
-7.29557
-6.63135
-6.68453
-7.40028
-7.25775
-7.09284
-6.26878
-6.51426
-6.49819
-6.24588
-6.65417
-6.67755
-6.94185
-6.13256
-6.28614
-6.74234
-6.93543
-6.21279
-6.37323
-6.48519
-7.43619
-6.45649
-7.03088
-6.80689
-7.95647
-6.26982
-6.15733
-6.11188
-6.83622
-7.2633
-6.68986
-7.30948
-6.49783
-6.33731
-6.90511
-6.52349
-6.57875
-6.15365
-7.49235
-6.93165
-7.74439
-8.61831
-8.12743
-7.85774
-7.38409
-7.28059
-8.216
-8.35584
-8.79054
-7.61453
21.4169
21.9443
22.9083
21.9003
22.7154
21.4292
22.4815
21.3073
21.8903
22.8988
-9.35998
-9.16843
-8.88029
-8.92093
-9.41539
-9.41782
-8.98292
-9.16047
-9.37084
-8.84791
-9.18992
-9.05839
-9.03363
-9.36936
-9.1004
-9.32713
-9.3896
-10.2265
-9.66541
-10.5912
-10.3599
-10.0173
-10.7086
-9.55722
-10.3484
-9.48181
-9.30978
-10.3137
-10.5512
-9.35998
-10.3508
-10.5562
-9.9819
-9.65753
-10.655
-9.92014
-9.94297
10.8936
11.2967
11.9942
11.4077
11.0877
12.2196
8.79387
10.3608
10.5861
10.2556
9.55443
11.6588
11.1187
11.6598
10.7753
10.3461
-15.1564
-16.2692
-15.2084
-14.6947
-14.7096
-12.5581
-13.3784
-14.2151
-14.7664
-15.1697
-11.4407
-12.8684
-14.265
-10.9205
-11.9476
-10.0938
-9.82727
-9.89821
-10.8592
-10.9317
-11.6764
-10.052
-9.52563
-9.29427
-10.4408
11.4036
10.3791
10.0118
10.0948
10.1384
8.63087
8.29331
7.70413
7.76397
8.32694
8.45509
7.53075
9.32093
8.41233
10.1393
10.245
8.2653
9.39808
8.99837
-9.18233
-9.13271
-9.67789
-9.00549
-10.54
-9.36777
-8.92229
-9.37276
-9.62353
-9.10628
-9.04907
-9.62386
-9.96825
-10.3983
-9.92698
-9.24668
-9.12727
-9.97234
-9.8497
-7.25195
-8.17311
-7.43053
-7.4795
-7.42289
-7.57238
-7.3602
-6.911
-7.98797
-7.86734
-7.83509
-7.38126
-7.71744
-7.69112
-7.96874
-8.04674
20.7895
21.3703
20.6994
20.487
21.7776
22.6601
22.3819
21.4792
21.5176
22.3517
22.5302
21.6041
22.4353
22.9977
23.6599
23.1026
-12.8097
-14.7658
-11.2209
-11.2649
-15.5594
-18.2668
-8.17694
-9.26183
-11.594
-14.0604
-11.1239
-11.8689
-13.4232
-18.046
-16.3723
-9.69629
-14.312
-11.4944
-14.7089
-17.0831
57.3297
51.3754
47.0405
46.7056
55.8065
57.1047
50.6114
55.4194
49.6
51.5955
49.1765
49.6222
46.4398
46.3056
52.0241
19.694
18.3731
23.0107
24.6533
22.5007
19.4579
24.8402
21.3975
23.8324
27.0987
26.0159
27.2578
29.0084
26.7999
-15.2298
-15.9684
-15.5178
-16.2734
-14.3674
-14.6345
-13.0098
-11.8681
-14.2191
-14.1614
-12.3441
-11.875
-14.6524
-12.9293
-12.6057
-13.2291
-5.53011
-5.2433
-5.28916
-5.46502
-5.25568
-5.55726
-5.16555
-5.5196
-5.70549
-5.05874
-5.12466
-5.07341
-5.63227
-5.46976
-5.14963
-5.34154
-5.2831
-5.60483
-5.41244
-10.4525
-10.3716
-9.94735
-10.8519
-10.9873
-10.685
-10.0937
-10.9039
-10.7998
-9.34737
-9.92858
-9.76195
-10.2037
-9.86778
-11.0487
-10.6887
-9.63696
-10.0627
-9.75174
-9.88387
-9.56354
-9.62772
-10.0547
-9.48493
-9.65041
29.681
28.8538
28.9189
29.3611
29.5324
29.1457
28.9289
28.961
29.6733
29.4716
29.5296
29.2799
29.3549
29.1342
29.451
29.5144
29.5419
29.337
28.9858
29.6088
-7.46684
-8.27396
-7.40762
-7.90558
-7.39126
-7.08026
-7.23218
-8.00293
-7.01199
-7.31218
-7.50924
-7.69751
-4.56256
-4.65333
-4.26816
-4.13405
-3.95295
-4.62978
-4.63716
-4.76261
-4.5368
-4.11814
-4.10822
-4.41609
-4.44151
-4.10622
-4.24056
-4.18034
-4.3576
-4.20962
-3.17099
-2.98877
-3.25765
-2.98302
-3.13192
-3.51009
-3.58466
-3.71042
-3.76244
-3.04136
-3.4814
-3.16334
-3.81575
-3.67428
-3.31391
-3.14981
-3.81352
-3.50267
-3.08643
-2.40986
-2.55349
-2.7033
-1.93193
-2.42995
-2.15024
-2.00204
-2.92082
-2.45569
-3.00411
-2.95689
-2.13886
-2.12729
-2.30932
-3.07559
-3.02989
-6.96268
-6.67366
-6.97072
-6.68041
-6.42215
-6.18792
-6.16043
-7.25447
-7.42999
-9.79571
-9.56547
-9.57963
-9.76126
-9.82678
-9.85246
-9.67351
-9.96579
-9.66805
-9.57331
-9.81714
-9.63298
-4.44583
-4.306
-4.46922
-4.47579
-4.38234
-4.58422
-4.52256
-4.73001
-4.69363
-4.49604
-4.94812
-4.90776
-4.85757
-4.956
-4.76787
-4.94439
30.1322
30.3474
30.0643
29.8077
29.4605
29.5414
29.0588
28.9998
29.269
29.8028
-8.01683
-7.80255
-8.04526
-7.81036
-8.10042
-7.98713
-8.26437
-8.23018
-8.34201
-8.36809
-8.09147
-7.94658
-8.14015
-8.49508
-8.41619
-8.18919
-8.14529
-8.12669
-5.36978
-5.6637
-5.27985
-5.35956
-5.31334
-5.28067
-5.52015
-5.31404
-5.45215
-5.87414
-5.62336
-5.69909
-5.46396
-5.64438
-5.23108
-5.32902
-5.53382
-5.33158
7.93981
7.31369
6.716
7.70515
5.8646
5.29814
8.34665
7.8107
6.48224
8.02157
7.02937
6.10586
6.87331
6.91087
29.9404
29.8377
29.7185
29.544
29.9931
29.5872
29.4062
29.4402
29.7471
29.5639
29.7342
29.8591
29.4339
29.3994
29.2876
29.3297
29.709
29.5035
29.6496
29.4181
42.2719
40.885
34.1069
37.2285
26.7043
31.0637
16.5504
32.2932
32.3122
29.6822
35.3755
25.5404
37.1823
42.2975
38.138
45.5917
27.2829
38.5007
34.0235
-10.1177
-10.6018
-6.98619
-5.56756
-11.6237
-13.9584
-13.2905
-15.6981
-6.6066
-6.85478
-17.6247
-13.9514
-8.58528
-13.2233
-14.7242
-9.69945
-9.98194
-14.6629
-11.865
-11.7589
-1.43303
-2.01975
-1.9593
-2.05019
-2.43885
-1.63494
-2.9303
-2.25637
-2.23004
-2.19126
-2.14979
-2.02324
-2.84483
-1.95269
-2.96265
-2.80403
-2.63827
-2.61579
-1.94059
-13.5047
-13.6323
-14.6314
-14.5954
-15.1832
-15.0251
-13.3142
-13.7695
-14.4194
-11.7977
-13.8126
-13.6667
-13.4292
-14.0893
-13.9327
-13.9517
31.6054
31.5562
31.423
31.4993
31.7721
31.7894
31.6663
31.6951
31.5053
31.3696
31.8891
31.6651
31.8295
31.8244
31.4488
31.3711
31.5389
31.7097
31.8407
31.4361
-0.893681
-1.04152
-0.477648
-0.0596992
-2.9912
-3.0757
-3.50469
-4.36012
-2.26932
-0.877855
-0.503955
-2.9928
-3.33766
-3.86344
-4.59255
-4.47741
-2.16228
-3.97691
-3.73028
-2.6714
31.7927
31.6861
31.7694
31.8125
31.8018
31.8167
31.7391
31.8721
31.935
31.9403
32.0066
31.7182
31.8875
31.8519
31.9644
31.9464
31.8337
-5.5776
-5.5148
-5.61495
-5.84775
-5.80631
-5.5235
-5.32558
-5.66304
-5.73345
-6.01609
-5.34869
-4.94658
29.9007
29.7154
30.2633
30.2649
30.0228
29.9666
29.6313
29.846
30.0638
30.2296
30.2687
29.8981
29.7405
29.858
29.6537
29.8577
29.6546
29.9181
29.9843
29.6439
29.8863
23.4902
23.0508
23.149
23.5662
23.6005
22.762
23.1485
24.7987
24.9675
24.7516
24.0605
23.6982
23.3341
23.274
23.2967
23.9928
23.8749
23.8862
8.58135
8.83937
8.92635
8.50502
8.76734
9.47554
9.12132
9.16073
8.90249
10.065
9.89684
10.1429
9.97316
9.0404
8.76842
49.8673
44.7942
38.9695
40.3944
46.7346
44.8107
56.2617
41.6403
48.506
43.4053
55.8347
55.6308
51.3512
44.6225
-2.49935
-2.14805
-2.76298
-3.33369
-3.19001
-3.4818
-2.52854
-2.69341
-2.88482
-2.60117
-3.34528
-2.91871
-2.59344
-2.11833
-2.29478
-2.80565
25.4556
23.4024
25.0383
23.2395
22.906
23.2932
23.6179
23.6722
24.5253
24.9297
27.3819
26.8721
25.8948
28.2031
28.7897
26.2096
27.243
31.0826
31.0448
30.6439
30.7418
30.8467
30.8963
31.1174
31.1533
30.6116
30.7276
31.0638
31.0932
31.048
30.9286
30.8839
31.0505
30.8576
-11.9917
-9.76524
-9.88201
-12.7416
-8.81063
-14.2299
-19.3672
-9.0485
-11.6396
-12.7868
-11.7122
-10.7826
-11.5113
-9.28853
-17.2463
-17.3245
-14.5307
-15.487
18.2023
17.8571
19.4711
19.1406
18.439
17.1272
17.5355
19.0915
19.5713
19.1733
18.9291
19.2327
17.5553
17.3033
16.658
18.4605
17.3363
17.9605
16.9167
18.4289
17.7272
17.4896
-4.73808
-5.00868
-4.78213
-4.44123
-4.41035
-4.49565
-3.36756
-3.84894
-4.56284
-5.22955
-4.45656
-4.92884
-3.97302
-4.09163
-4.01256
-3.84885
-4.48311
-5.0107
-4.33723
-4.41411
-4.83803
-4.69015
-4.43284
-4.72368
-5.03097
-4.83176
-4.8993
-4.18535
-4.22913
-4.12889
-4.30062
-4.27005
-4.98012
-4.94314
-4.86885
-4.59804
-4.24015
-4.67177
-5.11315
-4.97798
-5.0398
-5.19155
-5.41317
-5.45711
-4.96721
-5.32843
-4.95822
-5.11473
-4.86188
-5.32539
-4.54378
-4.85626
-4.65422
-5.37919
-5.01196
-4.66351
-5.3755
-8.5195
-8.88185
-8.6061
-10.1796
-7.52632
-6.34532
-9.50406
-9.37432
-4.44431
-5.20169
-3.01309
-6.41385
-4.19799
-6.68787
-6.17997
-7.93328
-7.67102
-6.00965
-5.67129
-2.29752
-4.37482
-2.99796
6.47323
4.82627
4.14838
4.65052
5.25565
6.8614
6.74496
5.67436
4.94934
4.10391
4.50839
4.66032
4.28996
5.34482
5.2091
6.28213
5.06609
4.32486
4.98337
-8.02119
-7.57728
-7.76204
-7.82913
-7.96559
-7.99711
-8.18052
-8.49097
-7.97582
-8.57384
-8.07346
-7.87513
-7.92811
-7.85343
-7.91704
-7.86719
-7.9205
-4.92608
-5.10631
-6.53025
-6.04314
-5.80567
-6.07924
-6.28555
-5.98257
-5.40396
-6.1862
-5.61334
-6.21556
-5.88289
-5.96196
-3.55511
-4.14811
-4.48203
-4.70793
-4.16281
-4.45741
-3.5152
-4.5766
-4.76983
-5.05313
-5.08229
-3.50129
-4.44864
-4.70615
-4.63358
-3.751
-4.60848
-0.224294
-0.499378
-0.242351
-0.0505532
-0.167174
-0.279919
-0.343323
-0.3827
-0.0678337
-0.247884
-0.508284
-0.471811
-0.707045
-0.653404
-0.182576
-0.34808
-0.761839
-0.672405
-0.691548
-0.632489
-0.304253
-0.0955404
-0.708537
-0.0130665
-0.256907
-0.280568
-0.414497
-0.617898
-0.337962
-0.254119
-0.219155
0.0169371
-0.0428037
-0.275522
-0.552464
-0.210217
-0.25696
-0.572565
-0.0901559
-0.269435
-10.7923
-12.1663
-15.1109
-16.0321
-15.6049
-16.4677
-11.5005
-12.9239
-13.7736
-9.41616
-11.6527
-12.4261
-14.3369
-13.6086
-12.9144
-11.9229
-11.4606
-0.264171
-0.262022
-0.654475
0.636751
-0.00618544
-0.883777
-1.14802
0.698211
0.413139
-0.542228
-9.54924
-9.61781
-9.79492
-10.017
-9.4239
-9.44286
-9.54016
-9.9584
-9.94218
-9.74159
-9.71894
-9.47483
-9.53354
-9.28263
-9.19788
-9.48589
-9.44894
-9.56549
-8.19596
-8.14793
-8.27785
-7.88341
-8.32427
-8.0163
-8.06496
-7.99357
-7.74227
-7.84235
-8.41583
-8.49468
-8.21179
-0.58963
-0.346566
-0.760388
-0.458351
-0.866671
-1.20333
-0.882021
-0.253091
-0.115339
-0.575584
-1.00111
-0.917747
-0.166436
-0.157481
-9.16599
-9.10698
-9.39232
-9.24146
-9.0754
-9.07514
-9.28654
-9.23117
-9.23416
-9.17125
-9.16658
-9.34682
-9.13414
-8.97889
-9.49285
-18.3761
-17.6678
-17.0464
-17.1699
-17.0335
-15.8304
-18.9052
-18.1458
-18.1333
-18.6825
-18.9605
-18.7225
-17.4298
-17.2392
-17.2604
-17.8252
-18.0249
-18.4677
30.6526
30.6486
30.9058
30.25
30.3648
30.3262
30.4348
30.2547
30.5768
30.5538
-8.37697
-8.42538
-8.40451
-8.63271
-8.3572
-8.64141
-8.33021
-8.42183
-8.22322
-8.30299
-8.32144
-8.54042
-8.60719
-8.4343
-8.65251
-8.31289
-8.42435
-8.44549
-8.23157
-8.39616
-8.44621
-8.42904
-5.0826
-4.90438
-5.13315
-5.09554
-4.49088
-4.31561
-4.80711
-4.78142
-4.86385
-4.4624
-4.15878
-4.29647
-4.72568
-4.68023
-4.54628
-4.42986
-4.52848
-4.40508
32.3226
33.2898
34.5598
33.2548
31.8238
34.3072
32.4888
33.4339
29.7449
31.6059
33.1791
30.3607
30.6916
29.4475
28.1688
31.2771
29.0823
27.9485
29.0225
32.4787
30.2997
29.366
26.7627
32.0489
32.8452
34.2143
33.6689
38.0556
37.2266
34.5348
37.1118
30.3802
29.6026
37.9105
38.8994
35.5704
38.2165
31.6721
31.7864
31.8448
31.6568
31.7608
31.6555
31.8298
31.7841
31.6333
31.7587
31.5804
31.6182
31.835
31.7753
31.7771
31.832
31.2525
27.0873
26.6619
29.0257
30.1379
31.9838
29.9067
29.9858
26.3032
25.6176
30.3448
28.153
29.7328
26.9914
29.1066
26.8326
26.569
27.8913
28.4785
27.3202
28.0088
29.1441
28.9887
28.2483
27.5144
29.1638
29.5759
29.0716
23.7825
23.3362
25.5692
26.9449
15.0701
14.0595
24.1356
23.9857
14.7783
16.9942
19.5597
19.4871
21.1704
18.6607
16.224
14.1171
29.5184
28.676
29.0356
29.55
28.7512
30.075
29.6719
28.8735
28.8927
31.7393
31.3077
30.9892
30.4374
29.3161
30.45
29.8862
30.9478
30.3334
29.6772
31.2284
9.24035
11.0413
5.73701
2.75199
3.96817
6.83807
14.1984
5.8576
9.77568
9.72852
3.38591
8.46632
9.1738
6.0374
9.07018
15.7362
15.8073
14.27
12.2663
10.6105
19.6146
16.7394
16.7878
13.963
17.9242
18.0489
18.0335
15.3731
13.9227
15.0176
15.1483
15.9062
16.2371
30.9946
31.0382
30.8552
30.7497
31.4076
31.378
30.96
30.8022
31.5567
31.5676
31.0141
31.2967
31.5496
31.5174
31.4154
-9.70695
-9.39273
-9.7559
-9.77907
-10.231
-9.07652
-9.01131
-10.8461
-10.5165
33.2701
32.3967
31.3856
31.3293
32.0716
31.4457
33.6815
31.1392
34.904
33.4588
31.2475
33.1048
33.7452
34.1102
34.574
30.3552
30.6618
32.4432
34.6148
33.2846
30.8493
31.7267
5.35928
6.06837
5.39404
3.47154
4.49553
5.41053
2.24629
3.51066
3.82101
1.68181
2.89063
0.901341
1.72152
0.597936
0.144816
0.987639
2.22901
3.81212
-0.164787
2.68667
29.8192
28.1224
32.8713
28.3243
30.2238
36.6468
33.8997
30.0819
33.8284
29.4142
31.8749
37.766
35.595
36.3156
39.7339
33.0535
32.3127
30.5794
35.0599
29.0316
32.2236
29.9321
33.8445
38.2655
39.1676
37.281
-8.84495
-9.75006
-9.52544
-8.89437
-9.19603
-9.80031
-9.30365
-9.00088
-10.281
-9.05557
-9.29483
-9.63497
-9.17684
-8.75102
-8.69802
-9.19562
-9.0254
-9.61354
-9.10353
-8.65256
-8.66378
-8.77715
-8.81601
-9.26946
-8.85693
-9.22727
-6.20645
-5.94248
-6.66021
-7.15364
-6.11232
-6.34742
-6.07183
-5.08244
-6.95264
-4.36404
-6.84573
-5.66278
-5.19568
-5.84787
-6.75864
-6.74954
-6.23489
-5.93894
11.5859
11.0832
7.62294
9.63649
8.26895
6.30655
3.00861
7.71542
7.99525
5.56182
0.649131
4.41018
5.83515
27.1018
27.8922
28.2363
26.8596
28.527
28.3035
28.6903
27.8179
27.9528
26.935
27.1238
29.0188
28.3808
-10.9679
-10.7669
-11.6628
-11.0522
-11.0937
-11.6438
-12.7813
-12.3681
-13.6554
-11.7544
-11.869
-11.663
-12.8058
-10.6165
-9.34581
-9.2009
-9.58087
-9.8104
-10.2753
-10.313
-10.5277
-9.37325
-9.53577
-9.85328
-9.46919
-9.23205
-9.50785
-9.45664
-8.97448
-8.78281
-9.0107
-8.96477
-9.11694
-8.81309
-8.66298
-8.72297
-8.65569
-8.96233
-9.00842
-9.17015
-9.07419
-8.80119
-8.77079
-8.81434
-8.62869
-8.27558
-8.23829
-8.09218
-8.20218
-8.09689
-8.07837
-8.45652
-8.16056
-8.06242
-8.31035
-8.31532
-8.25145
-8.81998
-5.54404
-6.63655
-6.90078
-5.39272
-6.06149
-6.63966
-7.2399
-5.47281
-5.33787
-5.91263
-6.0802
24.5796
26.1907
25.2725
26.408
25.6522
26.566
25.6657
24.8996
26.0227
25.1274
26.5288
24.2897
25.8459
34.4483
37.3358
39.64
47.99
45.7731
34.2582
51.4084
50.5977
37.67
43.381
35.8829
38.1037
46.3238
50.2671
53.0695
41.4186
43.2761
39.9106
49.691
47.6551
45.8473
42.8441
35.4128
35.4215
35.3885
34.0972
33.8085
32.5293
32.9387
33.4693
32.7202
31.7328
31.8228
21.5062
20.8374
20.5273
20.1173
22.6429
22.1317
20.3909
21.8325
21.0133
20.0811
19.2773
19.5561
21.3175
22.7408
22.9229
20.0973
19.5374
21.878
18.9683
33.1541
33.4444
33.3225
33.316
34.061
33.8939
33.6761
33.4987
33.4964
33.8999
34.6611
34.3589
34.7953
-7.73484
-3.56552
-1.13148
-5.06361
-2.98999
0.767619
0.580714
1.28024
2.07186
-2.516
-0.163852
-7.80478
-11.108
-2.54133
0.823863
-5.6971
-3.35019
-11.5463
-6.62693
-12.3075
-5.25985
-8.49078
-8.4193
-8.47542
-8.57545
-8.27426
-8.39515
-8.65132
-8.90955
-8.5023
-8.3763
-8.83595
-8.6713
-8.39986
-8.43145
-8.4087
-8.52848
-8.26818
-8.44912
-10.1451
-11.4158
-9.23343
-8.89422
-9.0691
-10.5823
-9.76447
-9.63957
-8.96299
-9.66452
-11.197
-12.8795
-10.9202
-10.7227
-8.75751
-7.03107
-8.74919
-8.08993
-7.43178
-9.19662
-10.7948
-8.28353
-6.97008
-7.95046
-7.08722
-8.74992
-7.68749
-3.16282
-3.58095
-3.82428
-3.71361
-4.04423
-12.4095
-14.6002
-13.0329
-14.4566
-18.8448
-12.3657
-16.2143
-19.5813
-18.9894
-23.2942
-24.5029
-21.031
-20.4374
-21.1544
-16.4662
-1.82617
-2.46751
-2.12472
-3.22029
-3.09468
-2.81738
-3.19294
-2.47868
-3.0834
-2.0526
-1.66692
-2.92267
-2.81328
-2.28897
-1.15737
-2.0087
-2.99017
-2.26114
17.5603
15.5986
11.6646
18.6418
5.95559
-4.48537
17.8099
8.0925
16.8051
10.8056
12.2335
-17.5799
-9.3396
-27.9071
6.27161
5.85465
2.69512
-6.79716
-0.0755276
4.81985
-18.3999
-17.9665
-18.0519
-16.5349
-16.9132
-15.7755
-15.6584
-15.4595
-16.8572
-17.0669
-15.0574
-15.7236
-16.2348
-15.3263
-11.7931
-10.0537
-10.8941
-12.7009
-8.19225
-8.93501
-10.4181
-12.6883
-10.167
-9.82931
-12.6378
-11.4157
-7.42835
-8.16556
-7.34904
-7.97324
-8.03257
-8.35662
-6.25619
-7.31671
-6.42906
-9.13786
-12.5577
-7.86077
-13.8371
-12.0573
-13.8964
-13.3207
-3.48229
-4.06981
-3.79588
-5.89544
-8.14193
-8.72352
-10.4124
-10.6406
-5.07291
-8.08216
-5.42691
-5.60799
-1.71425
-3.38972
-3.67659
-3.40561
0.144743
-0.126971
-1.12154
1.93794
1.98364
-1.6129
-3.92601
-1.0576
0.0685366
1.70719
2.28019
-2.32567
0.11798
-0.188077
-1.70948
-0.5055
12.9298
13.5479
10.6431
11.0605
13.6033
11.7667
11.3005
11.8896
12.4126
11.8784
10.8313
11.4576
11.5674
10.6365
13.4671
-8.81126
-5.88882
-6.94287
-7.57985
-8.78539
-8.18243
-6.00225
-8.55843
-6.12441
-5.77128
-6.45377
-6.42181
-6.47897
-6.84977
-6.82139
-6.11886
-6.74246
-6.86765
-6.32927
-7.03883
-7.81736
-7.40996
-6.20502
-6.28503
-7.48144
-7.33641
-7.48476
-6.59432
-7.23257
-6.13301
-6.62969
-5.73736
-7.02606
-6.63926
-7.16703
-6.44103
-6.17707
-6.79577
-8.9279
-8.67869
-9.19548
-8.95971
-8.77813
-9.19545
-9.78808
-11.1093
-10.4501
-9.8142
-9.44834
-10.1467
-10.0805
-10.9034
-10.3984
-9.61389
-10.0554
-10.3656
-1.67206
-1.46715
-1.46861
-1.64962
-1.80343
-1.85674
-1.45422
-1.47462
-1.80545
-1.86688
-1.68862
-1.98603
-2.36516
-2.40695
-1.56636
-2.05304
-1.86105
-1.67317
-2.40035
-2.26724
-1.88254
-1.6574
33.9145
33.5598
34.0369
33.667
33.0974
33.7647
34.2797
33.1686
33.2969
33.1927
32.6179
32.318
32.5389
33.5351
33.04
32.795
-16.2411
-15.5236
-15.1905
-16.0782
-16.6333
-15.8877
-13.7319
-14.187
-13.2963
-15.7876
-14.1564
-13.728
-15.1741
-13.5581
-16.3614
-14.9203
-15.7423
-17.2052
-4.87117
-5.00387
-4.51788
-4.27517
-4.7909
-4.76234
-4.97986
-4.46284
-4.38887
-4.08148
-5.10118
-5.17068
-4.64522
-5.09305
-4.57044
-5.03862
9.56082
10.2934
12.0059
10.4124
9.07152
11.3042
9.71817
11.761
12.2692
10.4576
10.9864
10.6176
10.3822
11.9937
9.86194
8.51061
9.86751
8.28675
8.70497
9.73619
5.82244
4.03408
1.33074
1.10814
-0.317608
-0.346052
3.62226
-1.49195
9.3358
8.14405
-3.1571
2.85572
7.75316
6.28767
-0.0709135
3.57568
-11.2166
-11.0267
-10.7715
-10.5194
-10.3879
-10.5604
-10.4271
-10.3921
-10.2131
-9.35584
-9.35079
-9.68102
-3.72153
-3.61711
-3.80189
-3.31837
-3.49089
-3.71914
-3.83019
-3.89879
-3.21557
-3.34605
-3.4815
-3.35958
-3.93115
-3.49493
-3.21153
-3.31655
-3.63809
-8.70266
-8.89978
-8.48159
-8.50651
-8.56784
-8.98495
-8.9185
-8.51924
-8.85461
-8.52838
-8.53108
-8.68379
-8.99205
-9.26667
-8.58448
-8.87164
-9.30981
-8.50662
-5.05236
-6.70021
-6.02022
-5.31358
-6.78726
-6.4723
-4.78298
-5.40719
-6.90518
-4.06626
-3.89825
-4.88006
-4.28003
-5.01445
-4.13079
-4.39933
-4.78575
-5.00765
-6.12755
-5.50383
-6.89618
-6.79536
-4.01636
-4.18104
-5.85668
-5.55571
-4.49109
-4.93494
-6.41993
-6.30861
-5.02271
-4.76809
14.8373
14.5005
9.00486
11.8672
13.7518
14.5688
14.4166
13.1001
10.1971
13.0914
9.94033
12.4821
12.3497
10.8884
34.2581
33.8871
32.7732
32.9788
32.9991
33.3459
34.0084
33.7132
32.6848
32.901
32.7737
33.4699
33.2868
33.836
-1.45586
-1.31979
-1.83294
-1.79971
-1.70088
-1.90548
-1.57758
-1.74504
-1.53771
-1.91651
-2.05794
-1.9441
-1.45661
-1.62024
-1.98245
4.95
5.38094
8.10327
8.15117
4.82408
6.05993
6.11668
6.6173
7.86298
8.12697
4.00063
4.28795
4.81478
5.44346
6.70003
5.24949
6.09089
-5.1973
-4.46395
-4.89973
-4.92352
-8.06329
-6.73781
-4.89174
-5.46834
-7.03902
-8.14841
-5.67999
-6.36281
-6.44718
-6.76452
-5.58085
-4.94134
-5.95386
-7.66249
-7.00266
-5.97093
-7.14168
-5.3666
-8.11022
-7.44818
-7.44668
-7.85669
-8.9193
-9.41419
-8.12638
-7.96315
-7.94359
-9.00518
-8.62558
-8.725
-8.45638
-9.02335
-8.35817
-6.81407
-6.87515
-6.77812
-6.86249
-6.61506
-6.64681
-6.48879
-6.6247
-6.48609
-6.1768
-6.3529
-6.41249
-6.3635
-6.68166
-6.24519
-6.33746
-8.58477
-8.66418
-8.80046
-8.84742
-8.08309
-8.75591
-7.92252
-8.73806
-8.6721
-8.52351
-8.14826
-7.95678
-7.318
-7.69314
-7.36215
-8.14884
-8.22317
-8.16828
13.1671
13.2208
12.1999
11.8549
9.06892
7.24087
14.2282
13.4225
6.42209
14.4153
11.9129
10.5106
7.87712
10.6076
12.8197
13.4658
12.1389
8.22964
9.49484
9.05739
7.4688
7.45592
8.7239
9.39756
8.15491
11.0086
10.8481
11.0066
9.37327
10.751
9.90084
8.46512
27.8807
27.2552
26.5642
27.5972
28.8274
27.5044
29.0373
29.0645
27.6087
26.8592
25.9484
27.5055
26.3586
30.1855
29.1775
-4.99075
-4.71615
-4.51522
-3.94859
-5.00106
-4.64684
-3.97261
-3.89475
-4.42314
-4.10972
-4.53967
-3.71627
-3.95352
-3.43027
-3.44128
-4.1171
-7.06534
-7.02532
-7.6473
-6.7784
-6.85509
-6.69678
-5.0183
-6.59801
-6.69131
-7.16021
-4.7421
-5.4413
-6.15246
-25.9341
-19.4683
-17.7644
-11.9624
-25.9041
-31.3152
-7.20987
-14.6805
-11.2907
-16.8493
-18.333
-23.0385
-20.436
27.751
26.6674
30.493
27.9153
29.236
30.7678
28.7645
26.127
23.9978
25.2513
27.8439
29.3307
28.3355
20.0636
21.963
28.2278
27.7586
21.6976
20.1655
22.7276
8.78546
8.6526
8.4497
7.55637
8.53129
7.91259
7.60116
8.26849
8.57509
8.5221
8.08254
8.86877
8.65679
8.23182
-2.72881
-2.27417
-2.45106
-2.70017
-2.29757
-2.76105
-2.96104
-3.02963
-2.709
-2.84264
-3.02779
-3.19058
-2.95039
-2.29184
-2.40866
-2.17902
-2.16548
-2.66552
-9.0483
-8.87478
-8.95949
-9.14449
-9.93195
-9.77577
-9.01234
-9.62657
-9.15872
-9.78416
-8.5248
-9.24743
-10.1258
-8.2245
-8.95614
-8.66825
-9.47253
-9.45168
-9.42879
-8.80071
-3.60732
-3.15349
-2.94047
-3.33437
-3.34195
-8.38857
-8.04008
-9.49859
-9.13859
-8.3708
-8.99098
-8.25179
-8.52805
-8.5686
-8.89989
-8.00163
-8.74733
-8.27303
-8.05328
-10.8649
-10.5823
-10.8154
-10.438
-10.7195
-10.0871
-11.3814
-11.0824
-10.6382
-11.2119
-10.9704
12.2901
12.6384
12.6585
12.3471
11.7791
11.6468
12.0835
12.5254
13.0791
13.0753
12.4879
31.1681
31.7806
30.2096
30.1318
31.0082
32.2312
32.7747
31.2025
31.0806
33.4694
32.3758
35.0575
31.1378
30.467
32.3258
13.4826
12.7034
9.77254
11.1374
10.5889
11.9662
10.2873
8.85041
9.04819
10.3404
12.0036
11.0745
12.4481
9.21567
9.69326
11.1344
7.57118
7.59524
9.6231
7.14265
5.86376
24.0674
25.077
24.5067
23.4843
23.9634
23.3136
20.7335
19.7623
18.1269
18.6915
19.0307
18.8727
21.8205
21.837
19.8282
20.4455
22.738
39.192
41.348
41.7721
39.2302
38.3555
40.0701
39.2953
40.0006
41.3348
38.5919
42.2668
39.0706
38.0986
44.7571
43.3488
43.2377
39.9041
42.944
43.9138
40.3474
-0.541371
0.19015
3.88997
2.75027
9.25668
0.00118546
1.49806
6.70345
4.76687
7.23644
12.4868
11.8858
6.64211
10.1242
-10.259
-10.1802
-10.0379
-9.93129
-10.1944
-10.2805
-10.0094
-9.90574
-10.0429
-9.7791
-9.8941
-9.77778
-9.77276
-9.7078
-8.2207
-7.9184
-7.83272
-8.17851
-7.7539
-8.14787
-7.79225
-8.2328
-7.97109
-8.12146
-7.99693
-0.184576
-0.160818
-0.486748
-0.536251
-0.924978
-0.208942
0.0183996
-0.48378
-0.295758
-0.533784
0.0469738
0.0382298
-0.220025
0.00922491
-0.808768
-6.17799
-6.27618
-6.27093
-6.40159
-6.26554
-6.48281
-6.62401
-6.34846
-6.52445
-7.0473
-7.08485
-6.91676
-6.92134
-6.52091
-6.32189
-6.35407
-6.50463
-6.3757
-9.02078
-12.0267
-8.72616
-10.1335
-8.89012
-11.9297
-10.4165
-9.53741
-8.00144
-9.07254
-10.7847
-7.88622
-9.79413
-10.5072
-9.81768
-10.9239
-9.47263
-9.91747
-6.96959
-9.90952
-9.20403
39.9828
43.6449
42.2738
44.0944
39.9094
44.1038
45.1908
42.5128
46.4194
48.1671
44.6463
36.5809
37.3672
41.9178
37.2081
3.03947
3.40946
1.41659
1.82064
3.72466
1.90644
4.21963
2.56008
2.46444
1.93081
21.7484
21.7032
22.3626
22.3704
20.9299
22.181
22.7633
22.6385
22.6764
22.6005
20.1044
20.6423
20.3859
20.924
20.5836
-16.1258
-15.646
-17.6364
-17.3712