/*--------------------------------*- C++ -*----------------------------------*\
  =========                 |
  \\      /  F ield         | OpenFOAM: The Open Source CFD Toolbox
   \\    /   O peration     | Website:  https://openfoam.org
    \\  /    A nd           | Version:  10
     \\/     M anipulation  |
\*---------------------------------------------------------------------------*/
FoamFile
{
    format      ascii;
    class       surfaceScalarField;
    location    "11";
    object      phi;
}
// * * * * * * * * * * * * * * * * * * * * * * * * * * * * * * * * * * * * * //

dimensions      [0 3 -1 0 0 0 0];

internalField   nonuniform List<scalar> 
146459
(
-2.04674
2.68684
-1.4827
0.842604
0.794408
-1.31514
-1.526
-3.19829
4.94547
0.939662
-1.17992
-1.22397
-2.12738
-1.02493
1.79721
1.3551
-0.28706
-1.84032
1.76976
-2.35473
-0.730175
6.44853
3.22921
-8.26042
-1.41733
-1.96214
3.40898
5.00169
0.0871578
-2.39774
0.902422
0.47039
-2.68291
-1.55516
2.81355
1.49785
-25.3569
47.1418
-24.4211
2.63621
-27.6469
20.1203
-17.8303
27.9775
10.585
-16.7646
-21.7979
54.6561
10.2282
-36.9068
-13.8355
-23.0872
9.2758
21.0775
-6.66004
-3.83246
52.1729
23.5607
-19.4711
-1.02449
-28.0998
-34.7616
39.7742
-10.3884
12.2597
-29.9711
-38.2133
8.35378
41.108
-9.54132
-19.307
9.85168
6.26498
24.9914
9.33961
23.7174
-4.07325
-28.9838
0.187965
23.6323
-14.4807
16.6388
6.79105
0.287602
-10.1626
9.87953
16.9218
19.7381
-18.1693
5.22234
-11.579
22.4528
8.86433
28.9905
-17.2245
31.8206
-43.5865
15.0005
3.82742
-9.24841
23.4262
-13.9899
-30.5462
16.9152
-11.4523
-3.86204
9.19823
-25.5982
23.7893
16.8094
-10.1087
16.3311
34.4605
4.03763
-14.7089
9.90041
9.66378
-3.4162
-4.09203
0.534673
6.97356
-6.3213
-3.6782
6.5833
7.25218
-6.75568
-4.58853
0.675293
4.29637
2.28052
7.86359
3.44248
-10.6308
-18.151
-17.4904
20.4451
15.1963
-17.7994
21.8289
-4.08688
0.0573736
-5.27948
-0.272509
-12.2474
-15.6309
-1.50122
-1.0188
-11.7296
-5.4148
10.7333
6.41107
-3.91967
17.3624
8.38618
-15.9263
-3.06442
14.9038
-15.029
-6.17674
-23.9994
4.45049
15.6292
-16.771
-7.50092
2.99704
-17.2285
-3.25895
-8.73256
10.2304
-11.1948
-21.7215
-11.1379
-8.37156
-2.29393
18.0896
-7.42411
-8.15841
-0.755073
0.541925
-11.6892
21.6082
-12.2129
-8.4447
0.690813
-0.404532
9.33927
-1.07808
1.16924
-9.43044
-5.40961
6.30418
3.13521
8.98171
-8.92932
-3.18759
-5.61687
8.75208
11.0265
0.419761
-12.5243
-0.798531
1.51779
8.26245
-0.346029
-11.3125
12.8277
1.28037
-9.78992
-13.8779
1.39014
-12.9436
0.00205884
-1.32583
0.348727
0.975049
-0.917115
-0.00721359
0.926387
-0.653611
-0.562789
0.299286
-0.196847
-0.23964
-0.889348
0.510276
-0.714336
-0.300966
-0.938331
1.58802
-0.970631
0.0160532
2.19407
-0.0919547
-0.564731
-1.53738
-0.171796
1.46339
0.902473
-1.11571
0.381124
-0.141677
-1.06599
-1.84454
-0.547591
1.4538
-1.00897
-1.07521
0.253928
-0.207044
-0.594475
-0.858379
-0.113151
-1.30321
0.40739
-0.884926
-4.16391
10.2898
6.79038
-12.9163
-1.95675
-17.2118
5.57056
13.598
-16.3104
10.1897
-9.82798
-23.6942
-6.40347
16.0206
-9.61713
-12.245
13.7553
4.06027
7.86058
-24.0582
6.36965
-10.7879
9.0158
-6.41731
2.46313
-5.06162
-0.616241
5.58681
4.04523
0.137548
-1.26044
-5.29442
7.95836
-1.61447
-6.20634
12.1908
4.9678
-9.20026
6.44632
5.12826
-6.90961
9.37274
0.327601
6.91392
-8.50195
-9.5553
8.26843
13.2405
-8.27274
0.00430528
-6.53835
0.867522
-6.29902
11.9699
-8.99136
-4.61985
7.07286
6.04568
-7.00112
9.86068
-8.90524
0.150446
5.89523
-7.50126
-7.4034
15.7722
-0.302357
-9.27248
0.583482
-6.60138
-4.18022
-10.6538
7.33275
-10.7583
1.95824
-0.0518444
-8.67221
-2.03426
-7.6345
-1.68982
-4.5481
6.45093
-9.53734
5.49558
-17.0448
10.7649
-0.340445
-0.563761
9.25672
9.99673
-13.1734
-0.997498
4.41222
12.8944
-9.90375
-7.40288
10.678
0.440821
-6.7066
4.42737
19.145
6.52698
-12.0417
10.6449
-5.13025
-9.94659
20.9009
6.21096
4.92767
-23.1419
12.0033
4.72532
-10.556
5.22127
-10.1973
16.8695
7.03205
-15.496
-8.40559
-5.65541
16.2802
6.24469
12.2111
-3.92544
-13.9411
9.4536
-0.400784
-2.02076
6.79486
18.939
-2.23911
10.8782
-9.0399
11.0749
3.22327
-2.08706
23.9876
-6.11782
-6.52991
-7.78788
-2.08595
16.4037
-12.8965
-9.01703
15.3836
0.0288814
-7.81677
-12.8907
0.0230712
-1.15779
-24.5351
16.6759
6.56216
-19.6347
11.9148
-8.06146
12.5377
-20.4784
-10.1404
22.5573
12.5717
-27.8656
-5.1845
2.43127
-3.13513
-18.6806
-2.71937
-12.404
-3.62184
-5.3855
-24.5674
-13.748
-10.8872
-6.90223
11.7098
-0.93844
-3.3025
-7.46888
-5.3407
0.130214
5.01323
0.197255
5.56016
-13.4164
2.51551
-9.41725
8.55459
0.992876
8.99425
-12.8513
-1.48097
4.03618
9.15461
-13.4918
4.69793
7.31286
-0.944444
-2.43272
-10.1146
7.43575
-3.36095
11.1933
-3.14349
7.01281
12.7351
1.29603
10.1759
13.0068
0.098167
-6.22331
8.26082
-2.13567
-8.45649
11.2967
-2.74202
1.32477
-16.0046
-15.2357
-1.37342
13.7106
2.89856
11.9111
-25.822
10.5376
16.8547
7.75887
-16.3528
-7.56161
8.53079
15.8856
0.197261
1.19396
9.20351
0.899212
11.6483
3.25623
-0.0283405
17.7626
-10.7349
22.3548
-5.81909
5.2606
10.3756
-9.81708
-8.04985
4.57426
-2.34349
-16.9731
5.51983
3.40342
-6.13479
-9.38838
20.7838
5.94128
-7.50181
-4.06902
-5.31936
-3.86459
1.65394
-16.8694
19.0801
20.6989
-21.4088
-3.15466
4.00931
13.2781
3.41147
16.4685
-1.74383
-13.0707
5.36993
18.9581
-7.8595
5.84312
11.9178
-13.7516
15.4869
3.95059
-19.3152
-0.122293
-2.10419
17.5911
-13.6862
15.893
-1.37993
20.8234
-14.0736
19.4045
-14.9413
0.811503
6.09712
9.64369
-16.5523
4.43832
6.76986
-10.3967
8.22984
7.12503
-10.9166
-2.90583
17.7078
-6.57215
11.5135
-8.32218
0.0542976
6.71556
9.69798
7.56304
-12.3469
9.39313
-4.60929
-2.53749
15.5311
-5.43057
0.161884
6.96315
0.979354
-1.81276
10.6773
6.87744
15.0173
11.9011
10.1196
-4.90726
-17.1134
-4.52098
8.83069
7.59138
5.5986
-12.2683
0.703026
18.1043
-6.53901
-6.84024
3.40261
-6.31408
11.9127
-16.669
-4.89386
12.3881
9.17482
11.2079
-6.79915
-21.0778
15.7693
-9.09125
-15.4402
8.76223
1.66049
7.91281
6.19597
-6.02203
18.6377
-20.7977
8.02653
7.15803
2.45837
-17.0568
7.44035
6.46357
11.5178
-10.8233
-5.865
-17.4329
6.02727
17.2706
-20.9568
3.62794
11.4639
-4.86148
-6.07693
-10.0184
-14.7689
-7.52551
5.60876
6.99787
-10.1483
12.0723
11.5475
-0.0317033
0.00205784
1.37419
-5.0724
-6.64831
10.3465
-8.8456
16.2471
-11.6186
10.1741
12.4763
-11.5554
-3.97779
6.67965
-10.6261
-1.44623
2.30396
-5.01292
-11.234
9.71038
6.5365
-10.0154
5.00249
9.14289
-2.25786
8.73226
-15.6173
-0.872513
7.48483
-16.1189
6.37616
7.01644
1.97848
-1.5101
-0.654945
-7.30736
0.204933
7.75737
-8.98476
-1.30899
9.63881
14.0055
0.457039
-3.47799
-10.9846
14.803
-9.78223
-2.04467
-1.16343
-0.179077
-6.18794
0.291544
6.07547
-9.01387
8.83479
-4.12782
-6.8707
7.86328
3.13524
8.32714
-12.455
-8.9394
-0.0744646
12.5082
0.961954
0.603876
-14.074
-0.0212719
12.5294
0.832814
-8.81026
9.10989
0.661084
-9.1671
9.37985
-0.291235
1.29364
-7.89064
0.409057
3.8028
-6.39674
-10.8151
7.90296
-12.9647
15.8769
-10.6081
-0.206982
-4.75343
17.6772
-5.0208
7.3503
-7.60707
-9.41721
9.67398
-3.79718
11.1475
6.11271
11.1615
-10.2082
-7.06601
-4.49541
8.29258
-5.34334
-10.5563
-3.14682
1.34358
7.17282
13.8815
-17.2937
-3.76064
-11.6797
14.0991
3.61186
-19.1634
-13.634
-1.19256
-19.4111
9.38899
-0.962087
5.32307
-6.00363
1.64266
-9.01563
8.05354
-7.75769
0.33715
-5.11876
-5.751
-2.00668
-8.12703
10.7527
2.29149
-22.0598
3.59707
1.15197
-5.82449
0.0734903
-10.2054
6.67238
-2.45023
1.32707
-3.90603
-0.451889
-1.99834
3.23969
-1.1889
-4.70921
2.65842
1.99808
0.351264
0.890348
1.19914
0.850955
-3.239
-0.48476
1.6839
-2.8752
2.94249
-0.552055
3.46687
-5.49111
1.23201
-1.90628
2.23482
2.61395
2.24253
-0.68195
-2.98959
-0.893563
1.25102
0.743234
-1.03377
-2.21446
2.505
-0.283134
0.109247
0.917121
-0.297828
0.234758
0.139416
-0.0763459
-1.0595
1.07007
-0.308397
-1.6784
3.44228
-2.82338
-0.0456468
-1.63276
-0.0928287
1.51524
-2.45618
1.14593
0.407609
-1.31878
-0.140899
1.0037
-0.361962
0.128234
-6.17502
6.08034
-18.0919
18.1866
-21.8947
3.01102
12.7087
-2.41126
-10.6376
-8.84586
17.6241
-11.359
-8.67641
11.2337
-5.95001
12.3405
-4.46486
14.5809
-4.03573
9.77981
10.5131
-2.51573
-19.3563
4.56308
-16.2845
-0.763392
-1.044
-7.7352
-19.1869
12.3153
-6.73706
7.25061
-12.8289
12.6043
-1.05238
-2.24345
6.80654
-16.988
-5.00716
8.6377
8.97378
-1.39488
-0.0902384
1.14469
0.340432
1.95655
-0.369099
-2.98233
1.86631
0.0627892
1.73273
-2.16461
-0.829401
-2.26829
-1.24471
4.3424
-0.456661
-1.21369
0.840949
-2.72495
0.433623
1.20706
-1.57789
0.364621
0.874088
0.858638
0.836438
-14.3038
13.6486
-14.1354
14.7907
2.51429
-3.62949
-13.1886
3.71781
11.7547
-20.4998
5.0273
6.04599
14.0145
-16.3427
-5.18342
7.69771
13.4129
-6.60828
-0.758606
-0.384432
0.449588
13.3477
0.0424952
13.9721
11.7972
13.5876
6.61376
-6.99291
-16.1678
13.459
9.70164
-12.294
5.38379
-0.0827404
-2.69435
-4.2912
-9.18222
-5.07271
-9.9156
7.98614
-8.01305
5.4107
-3.47561
13.9812
-12.2345
3.68354
-5.43022
-9.11435
15.9403
7.15522
-7.43689
-5.96866
-15.9328
-3.7386
10.6795
-6.99594
-10.5182
-4.58763
7.09277
-10.7981
-4.7928
-11.5836
-1.54239
-3.09977
-0.0668969
4.70905
5.44721
-2.26005
-0.804324
-2.38284
-3.6078
0.973663
1.57903
1.05511
-1.21957
4.91672
-3.69716
2.11894
-3.33851
-6.44899
0.746321
19.2054
-13.5027
4.29648
-11.2871
0.541627
-12.8859
-6.01036
19.6426
-10.4969
-5.2975
2.90845
13.8906
-10.7988
-15.3946
12.3027
15.3945
-7.51426
-23.876
2.58036
1.37671
2.82323
-5.41817
1.21823
3.69134
-4.41044
2.09582
6.62232
-5.96199
-4.9352
4.27487
0.598681
5.53452
0.489121
0.531299
2.89061
0.743729
3.47891
1.1915
-5.1662
-1.44348
-2.99518
-0.223762
-0.489474
-3.86826
5.51335
-1.15561
-1.73168
1.98594
0.85585
0.234118
-6.25616
1.12734
-3.26667
-2.68963
-6.54673
5.3681
-5.65083
1.22951
1.20189
-6.92977
-0.860798
-0.820278
-4.86566
-5.38428
-3.69286
4.07448
-7.88
-5.21702
5.4341
7.66291
-0.792561
-2.40247
-4.68497
8.38053
-4.27651
-4.89658
-4.64732
5.02127
8.00657
8.43827
-4.23033
-8.48446
-0.500931
4.29189
9.79365
-3.55889
-8.63723
1.43007
3.14656
10.6495
-0.194087
-7.63832
3.44453
-1.07904
-10.7896
-11.6443
7.00642
2.86829
-6.37341
1.72806
5.34739
-7.83499
0.75953
-6.12661
3.9507
3.90398
-14.5659
-0.344611
7.99436
6.91615
-5.21999
-0.906836
-8.43908
8.41558
-1.41502
-3.05617
-3.94439
-5.10389
7.39285
-10.1684
4.71993
-5.32875
-10.0597
2.40686
-3.13168
6.07222
-2.67328
9.03084
8.50553
-4.29751
-5.62303
-1.98246
2.653
-11.9335
3.97458
0.056842
7.90206
-5.61566
-7.22466
9.29566
-1.48712
-6.89779
6.55578
-2.72504
-8.12825
4.19662
0.376699
-5.01484
1.73582
3.33587
-4.83887
-5.79163
2.80076
-9.05103
-15.1336
12.4646
15.3436
-12.6746
-2.41868
-17.446
8.57955
11.2851
-26.5347
10.1348
13.9812
9.09326
-13.3925
-13.1467
-9.75905
-7.68239
0.498887
-12.3069
-1.07398
12.882
-0.908228
11.2101
-9.80299
12.8369
-13.5323
-0.21286
-11.3163
10.1018
9.79405
0.586799
-1.7348
-13.9856
-16.0136
15.544
10.6043
9.66074
-11.8432
15.8769
-12.799
-1.0688
2.18866
-2.32531
-1.27966
17.702
-14.2337
-0.227414
-2.06603
2.03711
0.256338
-0.215799
-0.0116149
-2.25381
-1.54218
0.33123
3.46476
-2.46961
-8.5531
-2.35867
5.93415
4.97762
0.26788
-1.55463
-7.26635
3.29442
-2.20464
-3.55939
-0.060615
1.81286
-6.81378
3.95485
0.500262
-1.15608
-5.38982
0.323333
-0.537241
0.202292
-2.89878
-0.172892
2.54123
-4.29652
-0.3488
6.22234
3.43316
3.90283
8.44124
-15.3204
2.97635
8.64789
-11.9386
7.19353
-18.7648
-5.69005
11.4773
12.9775
-15.9329
0.104671
-2.93653
-6.45853
-12.2165
17.1607
1.51424
8.34769
-4.83586
-9.97035
7.78079
-7.48872
8.14917
-0.195741
16.6244
-9.38176
-1.52569
-1.03114
-16.3545
11.0758
8.64743
-24.5591
14.9548
-16.0954
7.53218
-14.8177
0.316437
17.7935
-2.73408
10.5044
-5.1008
12.3899
21.786
4.57123
3.88533
-7.12603
-5.39653
12.4485
5.48242
-8.23921
-9.69175
3.72919
4.88389
3.83546
8.70304
-3.32982
-1.48789
3.40676
8.44284
-1.23587
-3.76354
8.40617
-2.6229
4.25532
-5.06769
-12.9348
6.35811
7.56602
-9.53831
5.70148
9.13629
-2.20519
-1.44868
7.00214
7.01805
2.90681
1.47243
6.70929
-10.2246
-2.64349
-0.888179
-17.5757
-13.0819
-4.06762
2.06386
23.5605
-21.5568
-17.471
0.174464
13.2289
-15.4692
-3.6509
1.64913
-1.82623
-12.8137
16.7038
-8.64837
6.9966
-7.43209
-11.5096
3.47243
11.2775
-4.54213
-14.4661
7.73073
18.2915
3.11433
-10.1284
-7.70206
13.1798
7.71857
9.78006
-6.83456
-10.6641
15.0211
-7.59618
0.293682
-19.5877
8.49463
3.39097
-6.69328
-14.2751
14.1214
-2.90493
-4.65241
-10.3759
-16.0291
-10.2455
6.65145
6.06245
-2.46837
7.73575
-12.9582
-5.02308
-10.3706
13.3323
3.02404
-5.98576
11.5543
-16.5076
-5.41716
2.97979
0.0617054
8.51276
12.5398
3.77226
-13.9701
14.2779
6.34371
0.118994
-6.35336
7.62222
16.2295
-17.7055
-6.14627
14.7409
-6.99966
12.0129
-2.92643
1.96849
10.7302
-0.158905
16.338
-4.86226
4.75378
15.6292
15.4497
1.59962
12.3818
0.921529
16.5813
-1.8736
16.799
-7.9048
-7.07011
2.81644
12.1585
-9.02792
-2.68085
3.80397
0.680757
-10.5026
0.793885
11.178
-12.0382
1.54093
5.46136
-9.58419
1.44198
-0.236692
4.34462
5.59604
9.70706
-9.84174
-5.82861
14.2411
-5.72816
-2.87946
-0.976564
3.34009
-7.47283
-1.59542
2.51162
-9.67409
-1.47852
-8.04808
-4.14071
2.8835
-4.57141
-3.79443
2.53686
8.60623
-7.34866
3.07694
-3.7475
-3.12387
-2.14143
4.97245
-5.71048
-7.58389
3.20649
-5.98547
-12.2489
27.0209
-6.89471
-7.87722
5.08948
-16.4557
-0.88274
5.38478
22.4295
-22.7248
-0.592292
30.0917
-6.40092
-23.0985
7.38556
13.9786
-34.6496
13.2855
22.0133
-17.2208
5.03731
19.807
2.17651
20.7208
6.74605
-2.45875
18.4915
4.68806
17.2632
2.29135
16.2386
21.2387
-8.29204
-8.64145
35.425
25.2098
28.5694
-17.4038
8.03836
-2.08283
-10.2782
4.32268
-10.5141
16.6944
1.85808
-12.4558
4.29087
-1.37378
9.53876
-5.3559
-12.5588
19.6742
-1.75949
14.5367
-6.70347
-13.1891
-1.72805
3.80889
-11.0109
3.43158
5.49649
19.5973
-19.2065
-10.6691
-9.64525
18.7284
-6.96118
4.57426
0.658873
-2.50899
-11.1557
-5.27381
-1.16283
-3.35938
-5.98677
-9.86031
-16.3005
8.65827
-2.00299
-7.474
-12.1859
-4.23337
-7.02721
-2.83293
-10.7102
6.06913
-9.57529
4.06119
0.33035
1.68068
-7.16504
3.78636
7.43987
1.00778
0.858022
4.54298
-0.094198
-1.64802
3.56438
1.30895
-3.22999
-0.904048
7.92039
-3.6018
1.37959
8.02804
-4.74944
-0.95297
-2.32563
2.83376
7.6064
-2.41211
-1.50777
6.88618
-1.19233
5.4941
-0.601522
-11.5599
-2.67241
14.8338
-8.47686
10.0663
-2.19092
-13.4403
6.33318
-2.47659
9.5837
-1.72806
0.15507
-6.90386
-2.37101
-10.917
-9.96469
9.61584
-2.32355
-11.8901
-1.72809
11.4128
2.20544
-5.63469
-19.6957
-3.55318
-0.0783406
-6.68766
5.93386
10.6642
-9.91038
-19.7756
-0.527148
13.6151
-6.99783
7.61561
-14.842
14.2242
6.9787
-19.6112
-11.9512
-3.24349
11.6415
-5.91356
-6.24642
-10.8861
0.561452
13.9779
-4.17084
-10.3685
17.7699
-4.8768
-12.3316
-5.37233
16.2856
3.06465
16.2336
-3.83602
-3.2478
11.8023
-13.4313
2.49167
8.10876
-13.8482
-0.222206
-12.6396
1.58213
11.2797
-7.2258
0.375748
6.62784
-2.0764
6.65291
7.24965
6.9075
7.27301
16.2622
8.26774
-9.94692
2.46734
-6.99821
-5.9108
8.56782
4.61599
-13.9136
-2.9016
10.9044
-3.1785
22.1716
0.223234
-4.9602
-17.4347
13.9156
-1.35733
9.61336
5.16356
-11.4039
20.156
-3.83887
17.5794
-8.10931
-5.63123
21.1086
-12.1402
-12.8073
-22.5619
29.2733
-6.48814
-5.44101
-13.1529
-3.96801
-7.886
-1.65019
14.6998
-13.4591
4.21578
-8.61489
9.67401
16.5203
5.86142
6.63227
-16.1052
8.50746
-5.4085
-19.0743
8.37769
2.28147
-19.8301
5.73589
-11.5637
0.488737
17.3806
-17.1695
6.86008
10.7981
-16.8746
14.8839
29.7012
-25.671
-22.7751
18.7449
-1.83979
16.0096
15.5314
-4.19277
27.21
-10.7546
-12.2627
12.3545
-24.0614
29.6532
-17.9464
-16.6141
3.29766
15.2487
-32.0746
14.9862
7.00516
10.3809
-41.4474
-20.079
10.4701
-14.2886
25.3445
-0.473529
13.986
16.2225
-29.735
-12.2005
9.7791
29.0279
-26.4335
7.78653
-26.8534
12.0913
-10.026
45.0232
-28.1369
-2.4259
-14.4603
24.4692
30.2929
-9.73892
-20.8208
28.0558
-20.1285
12.8935
-37.0166
-11.9411
46.3794
6.1455
-5.44099
-30.3948
-1.18085
12.602
8.6134
-41.3439
-19.3038
-20.3602
25.1771
14.4869
-15.6007
3.14635
-6.84942
24.1631
-30.2188
25.4142
-19.3585
26.2573
10.5079
-4.321
-26.6858
25.5658
-1.94978
-34.432
6.16294
-24.435
0.340394
3.7344
-22.9124
-17.1232
21.4793
4.27536
31.2993
16.4372
-29.1832
3.91257
9.11182
-1.58734
-11.437
-11.9266
11.4555
4.38372
5.73504
-12.8084
-4.85325
-8.72498
14.6779
2.1077
-8.06061
11.2595
-16.5152
-3.46927
-4.47468
-2.40311
18.3333
-3.67579
8.31292
-1.08446
5.58526
10.1771
6.49928
11.3532
-3.51047
14.5354
-6.50481
-0.835409
2.81431
4.5259
-4.17838
0.347914
-2.67434
2.04985
-1.54928
-4.67895
0.591469
0.62297
-0.384455
2.04301
-1.06708
2.00092
-0.889852
-1.49552
-0.861696
0.915658
1.98904
1.25974
-0.120523
-4.83347
1.73412
5.91366
-2.7257
-1.75985
0.358669
1.60052
-3.50847
2.25885
-1.29893
0.327256
-1.28718
0.360247
0.791493
1.10711
1.44664
-1.97782
-1.40118
0.841958
0.919464
-1.25347
0.958673
1.14303
1.3692
-2.49438
-3.57446
2.27682
2.08913
-1.878
4.3951
-0.384155
-9.72024
-10.2788
24.1034
-4.10435
-15.179
-18.1275
23.5862
5.74375
7.92892
-0.214819
-13.4579
-0.322286
-9.11291
6.48642
-8.83628
-12.5833
1.95371
25.168
-14.5384
-0.870428
12.3905
-6.26934
16.3556
-10.4086
8.49675
-14.9809
8.16676
-16.6369
7.59974
-6.0769
-7.37718
15.4078
-9.23618
11.326
7.93308
5.43542
2.98711
-4.27779
-5.87271
7.27879
-16.7138
0.198866
7.83469
-12.4949
5.82254
-3.90208
-1.90981
-0.0106583
-1.35983
8.36218
-1.17981
-1.10881
2.52458
-5.86567
4.4499
1.27772
-4.40002
2.01348
7.25526
-7.99993
-3.15741
8.42002
3.7834
-2.48215
-4.72199
3.42074
2.10133
2.95979
-0.968743
-1.17414
-3.72278
-3.40786
-1.9609
-6.23276
0.342745
11.6346
8.0105
-4.17144
-15.4736
-1.84819
6.29765
7.1851
3.58585
2.57647
9.1824
-2.5979
-2.99865
2.99784
5.98362
-13.1529
-12.2682
3.86486
17.5857
-0.989223
0.545602
-11.8246
5.33312
-8.3537
6.01842
9.30379
3.44556
-6.76574
4.57236
11.0291
10.2467
-11.0021
-0.23379
18.6839
-2.22345
18.8646
14.904
0.461596
-34.2302
-0.0605671
26.2582
-7.33302
-41.303
10.1783
15.8862
15.2386
2.39801
-14.6135
-29.0874
42.6578
-12.2036
-28.0561
28.435
24.4011
42.7428
-40.0424
2.67028
28.4992
11.5733
-11.931
16.4272
-4.55678
9.63374
-21.1032
-28.2328
21.743
9.16008
14.0373
-16.0119
18.16
-23.1398
13.9265
43.0076
11.9677
11.5347
-5.34244
20.7204
7.13345
-17.4571
8.94664
30.2534
-9.40283
5.98307
-12.9936
11.1903
22.5237
-3.8117
2.35282
3.2127
34.0635
4.86209
6.77872
-27.0469
15.4061
10.6213
26.6161
-32.3754
0.463541
19.7228
-13.4076
31.8937
-20.8089
36.7054
-15.9886
5.8993
46.3433
2.99569
-21.9562
-27.3827
22.1267
17.9135
-20.3173
23.5041
31.9007
-23.5111
45.8888
-0.258009
1.33379
29.8813
15.1282
-44.8888
15.2982
30.9243
-18.2539
18.007
-44.6418
33.5065
-12.5973
-3.28006
15.0865
20.0943
18.6512
23.9576
12.53
-4.84764
25.8241
10.9128
20.2684
-18.4197
32.0045
1.71346
19.0215
-0.57001
15.6882
0.113383
16.6
-4.07349
-12.6399
-4.96013
20.7283
-15.6548
-3.42561
21.2445
-22.7791
12.9221
0.935037
-17.2827
6.07308
13.2843
-2.75734
21.5609
5.24047
-4.67823
14.0286
3.57175
18.706
-2.13967
12.6413
-15.7798
-17.5421
-13.8862
10.5093
20.9189
2.913
-19.5481
-0.906945
16.2546
3.74369
-0.956776
13.4677
14.8189
0.903947
5.83807
16.1877
-23.0945
-1.23108
3.53263
0.485366
13.7676
2.90992
10.9522
13.4628
6.14711
9.94236
2.85514
-6.94905
10.3443
16.4561
-5.28278
8.41288
-8.31615
5.18605
-0.0921811
-3.79393
-1.39667
-10.0893
8.6228
-7.76137
9.22791
-3.28095
-12.5109
5.70249
-6.42459
10.7456
4.30179
-4.85191
-1.66485
-6.7445
1.94624
-7.80099
12.5992
4.92717
-0.926071
-2.49435
9.36775
-6.77501
12.6935
-12.8345
5.76908
-1.2507
-9.76228
-6.86617
-9.47182
1.33895
6.915
-0.626118
-0.777682
-5.5112
17.7159
-18.6019
-5.75029
4.74435
-0.19349
-6.18292
8.46143
-6.56128
-7.39908
5.49894
3.89948
1.88653
2.67542
-8.71808
-10.7518
6.79868
12.6712
1.69109
4.53212
-12.7845
7.54552
-14.5725
-9.45418
6.05961
-6.6772
10.0718
5.76251
-7.67117
-7.70165
3.10505
1.85073
2.74588
9.08891
-12.2584
7.10217
4.81097
-2.82424
4.78016
5.42706
2.08162
5.53161
-8.92764
10.206
3.50179
-0.217184
-5.20801
-3.08469
16.3885
-8.09578
-26.5602
1.08963
14.0662
11.4044
-1.6342
-26.3225
1.39646
-16.0689
-2.53886
13.3997
7.96221
-0.88069
-23.1504
-20.5899
9.94472
11.7348
0.133019
-22.3571
-5.41888
12.2789
-17.942
9.98425
-19.238
1.42901
18.0999
2.28632
0.931054
-21.3173
7.74191
11.8646
-1.50659
-6.96315
-4.51759
6.28431
5.19643
-13.7234
-8.54057
15.3008
-12.8153
13.5468
7.01038
2.11058
-12.6395
-13.1933
11.3345
2.23087
-14.4931
-4.48942
18.4042
-0.367977
-3.39186
-17.9477
16.8219
-24.2466
2.87442
17.9803
-2.17068
-25.9469
3.87097
-20.8274
0.709087
-16.6033
14.9883
3.43234
-22.0289
0.17384
-22.6884
-14.3189
-17.2389
4.04551
13.7184
-0.525088
-8.21112
5.29214
-14.3199
-1.52986
6.49269
4.85049
-9.81332
12.2599
5.7993
-19.5891
1.2322
10.8558
0.171937
7.10842
0.61647
18.5558
9.22263
-15.3721
-12.4064
12.0008
7.66741
-1.1124
-16.5926
10.8404
17.753
-5.24224
-2.1277
9.18377
-12.5444
11.024
2.2053
6.72299
-3.9028
2.47196
16.0356
4.40582
-14.8335
5.26076
-10.3511
4.19372
16.9978
-4.73757
13.3323
4.80013
9.13325
16.1073
-9.20492
26.6592
5.11886
10.0894
0.64972
-15.8579
10.297
-11.7418
6.56363
-4.70287
1.14083
13.8591
-2.82211
8.2086
3.48428
-0.356124
-14.87
-8.70085
-3.38314
13.2248
8.42168
-4.08026
2.65551
-6.99693
5.65679
7.99911
-4.33469
-9.32121
11.4781
2.77739
-8.59874
0.726204
12.0951
-4.8222
13.1926
-4.04474
-7.59713
2.38055
2.58645
6.06958
-10.4906
9.69386
-6.66864
8.27319
-1.07314
6.32631
0.977412
-5.11153
-2.19219
1.80927
2.95968
1.55737
-3.40288
2.36494
2.84722
-0.762089
-1.66338
4.04497
7.24248
-8.32777
-1.94406
8.02035
-3.71135
-3.43268
9.25721
-2.89391
-2.93063
2.17821
-5.03847
-0.572411
3.07037
-1.69636
-2.13611
-5.29197
6.41828
3.31754
2.19777
3.7419
-6.30236
4.32794
-5.82051
-6.75671
-4.90364
4.74068
6.91967
-8.98302
1.09837
1.12794
-2.32107
-2.90033
0.317763
6.85841
-8.27848
-0.900995
5.78542
-8.38321
9.4562
-6.23837
16.7645
-4.43885
-7.4445
7.04667
-8.7357
2.7874
-5.49943
6.30773
-8.35341
-0.0103937
0.085321
-3.94279
-9.93985
-8.68947
-0.0700198
0.0237888
13.4527
-0.392399
-11.3473
-1.71299
16.4946
15.7235
-19.86
-12.3581
4.0257
10.9182
1.55068
12.1158
5.36261
14.4218
2.99726
-1.69555
13.0844
12.2556
24.015
-12.2021
-3.64223
-8.17065
0.499832
-1.8873
25.4025
-15.0931
-0.637093
16.2301
-15.1795
22.7069
-14.7419
-11.6073
-1.08012
21.8998
23.2497
-17.0341
-6.51419
0.298589
0.625023
21.5445
10.8576
-13.5095
-14.3822
15.5702
-1.71528
-1.06651
13.5138
-6.49963
-14.7565
15.1287
12.8577
-0.206772
2.8003
-15.4513
1.85213
13.6028
-2.59722
21.3718
16.5273
-22.7304
-15.1687
-2.93959
10.6776
13.6338
5.17538
8.41229
11.553
2.45579
-14.2156
-1.5751
14.9802
12.0134
12.267
3.16112
-23.0912
-19.2557
6.83176
11.5227
0.9012
-12.6918
-1.0585
-5.50537
1.19443
16.925
-6.10603
14.9484
0.055262
-11.8425
10.1787
9.94503
2.84487
-13.0809
-18.6839
4.82598
20.6897
-13.0132
-6.72915
16.1992
-10.1131
0.332383
0.649188
-0.95933
-0.0222401
0.664011
-1.34024
1.00861
0.594002
-1.05705
1.12706
0.130643
1.11255
-0.690262
-0.148274
-0.120795
-1.22895
-0.801547
0.55157
0.41625
-1.11609
0.64181
1.70052
-1.79076
-1.30778
2.08023
-0.610699
-0.260064
-0.726837
1.5976
1.7298
-0.810837
-1.52966
0.854427
-0.356831
1.2322
0.743617
-1.14488
-0.655781
0.290265
0.605134
-2.56085
-0.883881
-10.3539
14.5751
-15.4427
11.2215
7.70431
-0.139272
-17.919
0.992181
-3.21639
9.92851
-4.49375
20.061
-24.6816
-1.0416
5.32073
20.4025
-13.6021
-1.50296
-9.57659
1.6034
-5.27396
-11.7721
-3.2385
-15.5978
14.3425
-18.4387
14.1586
-11.9806
-20.0602
18.1093
-11.1521
-8.46017
20.2137
-9.97532
-4.01903
-8.29798
-0.78476
-2.06938
2.97981
-17.0364
5.75864
-18.9761
4.34281
7.5468
-11.8896
9.10435
-8.18333
3.42179
1.6197
-2.60949
8.5366
-1.16572
11.8898
1.72913
-13.6187
-7.29241
0.838205
1.11172
-17.9011
1.82922
14.9602
-15.5376
2.80973
13.8396
-22.0568
19.5813
1.82973
0.645739
-2.2411
0.150468
-19.9662
-3.36662
5.04685
-19.3186
0.414435
-10.8268
12.4708
-0.653282
1.2556
-7.89473
1.59542
-15.8674
-14.4067
13.6265
14.2136
-14.8592
1.63656
-1.29683
-17.8713
-10.868
1.12253
7.22061
1.49389
-9.83704
2.4175
0.20601
-13.5102
10.8867
16.7061
9.35207
-18.9648
-7.09336
-9.47197
14.7085
11.4695
-6.86237
8.91999
-2.70551
0.647893
-9.08347
2.51685
-0.295751
15.1439
2.74077
-15.4672
-6.48756
12.548
0.74495
-4.49174
-9.89262
10.3333
-2.87139
2.43074
2.42954
-12.1162
-3.26302
8.39126
4.22383
1.51171
-18.0469
-7.21531
8.19278
-9.7774
1.09998
-3.70365
12.3811
-7.98003
-24.4687
22.6713
2.3225
21.376
-13.4006
-10.2979
-12.2214
2.33158
3.85458
6.03524
-12.8566
-15.5605
16.1958
-21.935
1.09831
-6.94323
10.3443
16.0514
-19.4525
-3.45591
-2.38734
-7.3141
-8.84447
18.4811
-8.73806
-10.3605
11.7844
-7.24279
0.836308
0.667441
0.832347
-11.9549
2.26185
-8.52711
-10.6706
-7.44831
6.27298
-7.67718
8.85251
-10.9224
6.46985
-2.99575
0.214139
-10.9533
12.3891
-1.64995
-9.68483
-1.02344
-6.16431
-3.66459
16.1019
-6.25181
6.55736
0.221165
-16.1622
9.68921
-22.1452
8.62034
13.746
-0.925925
6.95392
-15.7128
7.43837
-19.3176
3.82319
-13.0315
-6.77737
-11.5446
-0.299182
5.01111
-10.5574
15.5131
17.4194
-16.7584
6.56289
47.4663
-29.0023
-1.73073
-16.7333
1.34055
21.5027
24.623
-33.5154
-2.75462
23.77
12.5
-19.7844
-42.7333
-25.5048
12.8188
14.0266
-17.2062
-10.0294
-26.8446
14.0496
10.0403
-12.1246
8.93053
-23.6505
0.563488
-32.4725
8.62076
36.652
10.1375
-14.674
17.3553
-32.5374
29.042
17.5451
-5.5648
-18.0421
16.2428
9.85008
-25.5294
25.744
-6.98569
14.0559
-15.0193
-2.64068
2.0226
18.9897
-14.7045
2.03293
14.3161
-6.89
3.25407
-14.8095
18.4454
15.8211
-18.0929
-1.2062
4.6686
-6.98912
18.1416
-11.3957
-0.422967
-10.7936
22.6124
-1.77274
-16.513
-2.83644
22.3081
-5.59169
0.743942
-13.2451
-10.0866
19.2905
-9.62682
3.24973
-15.1091
-19.42
17.0781
2.49168
4.11089
15.8043
-22.4069
7.60384
24.5718
-29.6839
13.2152
-9.21714
10.3369
17.115
3.35283
-1.17731
21.8824
7.76523
6.62408
-26.2325
11.0569
-16.4384
-6.15213
9.13258
8.30469
1.39753
18.6212
-8.96178
10.2912
9.75259
-13.4197
-6.5328
18.2215
8.62068
3.84837
11.5065
7.07241
-9.95822
-0.882777
9.56657
1.94297
2.23143
-15.2193
11.0449
15.291
-6.65136
6.92639
-15.566
-4.50561
-0.987175
20.7837
-12.7894
3.50235
-2.09841
11.3855
4.11857
-14.965
-4.41521
14.9281
-15.0185
-9.92781
-3.82859
12.7692
-16.6008
0.0216711
21.3686
-0.926575
-9.98012
-10.4619
2.14958
2.20195
17.017
17.704
-9.24289
-9.38766
4.48551
15.368
12.9339
4.01363
-12.829
-0.16454
-0.462176
-12.7077
17.1835
-4.2058
-12.236
15.9796
19.3984
-11.7265
-17.652
17.1852
13.8965
-13.2396
-13.7009
14.1443
10.0416
-19.7968
-4.38907
-7.24645
12.1459
9.24482
6.3541
-3.55895
-15.6449
4.06324
12.2782
-0.696549
-17.4038
-11.9356
13.6945
2.25071
-14.5576
18.661
-4.44687
-11.7032
18.4008
3.67872
12.5304
14.2689
-13.133
-5.58277
19.8307
-9.92072
4.35889
4.41332
20.9347
-5.51734
22.8929
-14.8009
-9.95739
-2.2232
-4.33112
16.5117
-15.4077
14.8441
-9.39377
9.79983
-6.91153
-2.8883
3.43785
-0.764701
13.7757
-16.4488
0.0884398
13.1492
9.15982
-4.67951
-6.7035
1.51694
6.58324
-2.3598
-5.74038
8.97061
-7.45367
2.05908
2.39353
-12.92
9.76175
-6.71703
9.19899
-8.43046
-17.6166
19.33
-6.37138
-18.4482
-15.4626
16.2941
-15.4226
-9.39689
-5.35506
-3.33778
-6.76973
-14.1945
-7.09794
1.73704
11.5009
1.45396
-14.6919
-17.3641
15.1881
3.91296
0.505661
-0.624606
-17.2451
-1.49346
-0.158102
16.8397
-1.43204
11.4395
6.0113
-22.5024
18.391
-1.89989
13.7507
-12.541
4.80166
16.3709
-2.9366
-17.1619
3.72762
17.1785
-0.807605
-17.6841
-2.03251
19.5585
-0.785277
13.1039
5.64088
-1.47965
-26.6637
-9.32213
2.42198
19.4412
-1.45649
0.406356
1.25919
17.3967
15.9337
-20.3499
-1.18027
16.3064
16.968
-17.7413
-20.5974
-18.6436
27.1782
12.0628
-5.61577
-30.4206
15.4389
9.43867
-2.76436
-25.3179
6.04216
34.2618
-13.1258
-29.1274
-10.3847
17.6769
21.8352
20.3115
-33.798
5.12077
8.36578
-5.95107
32.3047
-30.1366
-4.77988
5.78908
-25.492
1.13265
0.269177
-21.052
-4.70917
35.0838
-28.6776
-6.13707
24.4109
15.7937
-13.0208
31.4807
25.9196
-37.0616
-1.87884
5.12543
-22.4666
-3.7108
-24.6743
1.12209
2.83291
-4.60326
-3.14954
4.91989
-1.96173
1.55293
3.24171
-0.949595
0.101507
-3.75517
5.63279
-0.0486667
-6.53372
5.41099
-4.78111
-5.97118
5.34131
-2.17476
3.72059
3.86516
1.4963
0.666112
-5.49589
-2.84018
6.49719
0.543239
-20.9208
13.8804
-5.73223
5.62779
6.60163
10.6578
-0.725039
4.37318
-14.306
14.138
6.81448
-20.4092
-12.4785
12.7717
16.8845
-17.1777
-1.34229
-11.1362
-12.0724
9.6445
13.0857
-13.4147
9.76539
3.64756
13.6484
-8.93118
2.09721
-4.46762
26.8838
18.9462
0.90778
-2.87237
-14.4327
16.3973
-1.90198
-12.6999
15.5096
2.6266
1.42715
-18.27
14.2163
-15.1445
15.8691
-15.1873
13.7421
6.39435
-12.3188
-8.50825
-6.30551
-4.26572
-16.52
5.64119
8.05445
-4.1
2.34777
-6.30222
-18.6171
11.4843
-2.26467
-20.4525
-10.5712
-1.46722
-14.455
-2.88659
-15.1006
1.38439
-15.9678
-12.0734
13.108
-13.6029
5.35392
-4.85895
-6.91472
7.1908
12.8319
8.4507
-2.50677
-19.5469
1.53598
9.39292
4.17034
-8.20935
19.3764
-2.79269
-7.66196
9.19794
-11.5509
1.55715
11.9669
-1.97316
-5.38565
-13.8272
-17.2148
9.32238
10.1198
-14.4151
-14.5635
18.8588
-0.362052
10.4819
-0.519878
10.7074
1.56654
-11.7541
2.18232
-17.1173
9.38527
9.23381
-7.91168
9.02322
-0.720655
11.5786
-9.29143
15.3669
-13.9052
0.26679
13.2677
-13.9642
0.429701
4.16419
-6.77017
17.9728
-0.669095
-12.9094
12.7979
0.780507
8.35412
-3.60954
-0.0660131
16.7765
-12.5695
-0.0427703
-0.279358
17.5669
-0.511073
0.564904
8.05601
13.0835
-4.60042
-18.807
17.7556
-14.7578
15.8091
-11.7163
-2.92865
-4.16205
4.98348
-1.68584
14.458
-26.5445
1.7828
10.0039
-22.6235
-15.6372
-11.6992
18.122
-1.43931
18.347
-14.6067
-6.66904
12.0128
4.6484
-19.7586
9.84224
31.1825
-8.32364
-32.8999
10.0411
27.0431
-15.6192
19.0606
4.42798
-7.15615
-16.3325
12.6966
5.20622
1.15781
2.00398
-32.9512
-13.6352
13.9393
12.3925
-7.09527
-2.11191
15.8569
-21.009
6.45643
12.3751
11.0408
-11.8323
-11.5836
-5.99557
14.4847
3.88594
-21.4627
4.07626
14.5521
2.83435
-9.91412
-0.507778
18.7119
-12.6135
1.87487
-7.97328
23.7499
-7.12195
2.08399
11.4838
0.186287
-23.5023
8.33072
-2.84251
13.6531
4.90788
11.2811
-22.548
11.4532
6.87134
-8.20375
-17.6403
-16.8032
21.1178
13.3258
1.48069
-10.7903
-8.45122
0.0660362
35.155
-22.2476
-12.9735
32.4918
-11.9282
-20.4976
5.22398
15.7254
14.2056
18.1276
19.5882
-21.5117
-6.38739
5.65149
11.1981
13.008
-8.48063
-11.0197
2.27224
12.7306
-3.98311
-11.5211
-1.88057
2.38203
16.673
-4.688
-12.8887
0.903723
11.3739
-6.22202
-15.7545
17.2417
6.1053
-7.59252
6.75885
-20.6392
-1.87417
-1.95246