/*--------------------------------*- C++ -*----------------------------------*\
  =========                 |
  \\      /  F ield         | OpenFOAM: The Open Source CFD Toolbox
   \\    /   O peration     | Website:  https://openfoam.org
    \\  /    A nd           | Version:  10
     \\/     M anipulation  |
\*---------------------------------------------------------------------------*/
FoamFile
{
    format      ascii;
    class       volVectorField;
    location    "11";
    object      U;
}
// * * * * * * * * * * * * * * * * * * * * * * * * * * * * * * * * * * * * * //

dimensions      [0 1 -1 0 0 0 0];

internalField   nonuniform List<vector> 
75457
(
(5.10023 0.563722 -0.833003)
(5.23642 -0.241753 -1.08302)
(7.19927 0.721202 -0.701897)
(9.27495 0.313991 -1.0722)
(4.03934 1.98928 -0.0110454)
(4.1311 2.15664 -0.213056)
(5.50069 0.314504 -0.575889)
(5.25209 1.23726 -1.0152)
(10.1963 0.0324734 -1.26298)
(10.0188 0.250858 -1.07389)
(10.2113 0.429605 -1.02893)
(4.29133 1.56802 0.113441)
(4.31735 1.33901 -0.365718)
(8.91498 0.631812 -0.519463)
(11.8887 -0.321918 -0.0515144)
(11.9777 -0.326088 -0.0433857)
(12.3533 -0.411338 -0.219039)
(12.1338 -0.430666 -0.265731)
(12.0596 -0.364328 -0.0723884)
(12.3651 -0.354758 -0.150561)
(12.1845 -0.405565 -0.228355)
(12.2472 -0.400429 -0.093449)
(11.9423 -0.350133 -0.0617389)
(11.9368 -0.357941 -0.0966319)
(12.2221 -0.423576 -0.0815945)
(11.7103 -0.396976 -0.235762)
(11.6691 -0.423162 -0.257558)
(11.1988 -0.815887 0.37969)
(11.0111 -0.812986 0.53328)
(11.1719 -0.821399 0.371193)
(11.3406 -0.748941 0.336248)
(10.9568 -0.809962 0.493956)
(10.9648 -0.79214 0.511372)
(11.6027 -0.599045 0.324847)
(11.585 -0.589896 0.298384)
(11.7278 -0.568985 0.517815)
(11.658 -0.627077 0.364406)
(10.8966 -0.811368 0.567742)
(11.0288 -0.792627 0.5597)
(11.6419 -0.552003 0.339019)
(11.666 -0.548577 0.355755)
(11.649 -0.582549 0.375034)
(11.6971 -0.630543 0.523558)
(12.8019 0.414458 0.391)
(12.6035 0.42945 0.321131)
(12.936 0.383443 0.392668)
(12.9438 0.368029 0.415629)
(12.7857 0.399763 0.402451)
(12.2229 0.187772 0.09059)
(12.4791 0.258527 0.155228)
(12.4889 0.258819 0.140459)
(12.2956 0.19536 0.125138)
(11.9924 0.215778 0.0308609)
(12.4025 0.25423 0.136311)
(12.5226 0.242103 0.184396)
(12.5179 0.23756 0.16143)
(12.085 0.257388 0.0922583)
(12.1023 0.253315 0.0773242)
(12.1794 0.184023 0.0568832)
(11.9573 0.206133 0.0191293)
(12.0325 0.23823 0.0683911)
(12.2708 0.187774 0.0937666)
(9.93138 0.056985 -0.296725)
(9.93902 0.067316 -0.321088)
(10.1246 0.090576 -0.252043)
(9.92388 0.0625934 -0.290568)
(9.94734 0.0571716 -0.271589)
(9.89594 0.036096 -0.267997)
(9.91462 0.0423021 -0.207153)
(9.80697 0.0286015 -0.229659)
(9.82391 0.00943197 -0.22721)
(9.76889 0.00291735 -0.239296)
(9.94612 0.0497506 -0.21556)
(10.1196 0.0918281 -0.251741)
(9.92661 0.0492549 -0.194304)
(10.0985 0.0822502 -0.22126)
(10.0884 0.0738852 -0.209526)
(0.70965 1.11112 0.267146)
(-1.19858 1.28921 -0.835131)
(-1.14474 1.14726 -0.612539)
(1.66965 1.40098 0.368326)
(-0.813905 1.54687 -0.4316)
(0.618403 0.896738 0.0280605)
(-0.662316 0.886966 -0.164601)
(-1.1014 1.31109 -0.554165)
(-1.30054 1.42199 -0.778753)
(-0.86016 1.10018 -0.846135)
(-0.630339 0.974058 -0.973597)
(1.84313 1.02958 -0.159479)
(2.28238 1.34108 0.22235)
(0.265207 0.739375 -0.254541)
(-0.65378 0.730525 -0.351798)
(1.04808 1.42714 0.444074)
(-0.552771 1.06827 -0.136936)
(12.4784 -0.279386 -0.0178575)
(12.8603 -0.28533 -0.0222675)
(12.8603 -0.289433 -0.0218801)
(12.8807 -0.289268 -0.0170831)
(12.2605 -0.278036 -0.0174344)
(12.5139 -0.276887 -0.0196759)
(12.5138 -0.287953 0.00405016)
(12.3739 -0.268852 -0.0173783)
(10.0176 -0.00988533 -0.0194729)
(10.028 -0.00914372 -0.0163095)
(10.021 -0.0148783 -0.0219383)
(10.0213 -0.0194277 -0.0153979)
(10.0125 -0.0174094 -0.00654977)
(10.0241 -0.0172842 -0.00565832)
(9.8557 0.000711961 -0.0203398)
(9.93382 -0.0143922 -0.0148749)
(9.94532 -0.0181603 -0.0109838)
(9.90251 -0.0188366 -0.00152093)
(9.87138 -0.0257944 -0.0229427)
(10.7565 0.115175 0.066935)
(10.7929 0.138613 0.187085)
(10.3911 0.0974852 0.112742)
(10.3803 0.0321205 0.0382457)
(10.7711 0.087025 0.204675)
(10.6447 0.151464 0.115993)
(10.5452 0.201843 -0.0212582)
(10.8587 0.10688 0.267876)
(10.8511 0.131553 0.276819)
(10.748 0.129481 0.27054)
(10.5517 0.153675 0.127259)
(10.4534 0.126301 0.0896362)
(10.4981 0.123475 0.14178)
(10.551 0.16628 0.0562078)
(10.4962 0.0935106 0.150487)
(10.5355 0.0579518 0.0823459)
(10.636 0.117338 0.228676)
(10.7303 0.115952 0.245937)
(11.3214 0.00581071 0.372947)
(11.3936 0.0793705 0.323467)
(11.3959 0.0557812 0.354325)
(11.3234 0.0335147 0.318977)
(11.3195 0.0191271 0.310051)
(11.3099 0.0796366 0.328396)
(11.2409 0.0378479 0.307426)
(11.2473 0.0277292 0.353332)
(11.196 -0.00789994 0.325439)
(11.9468 0.0354866 0.185713)
(11.9535 0.0213791 0.206086)
(11.8448 0.0145576 0.239526)
(11.9572 0.0306725 0.155465)
(11.9905 0.019237 0.175435)
(11.6877 0.0251209 0.119263)
(11.861 0.00509083 0.247405)
(11.8944 -0.00543862 0.211522)
(12.8256 0.0427256 0.00962605)
(12.9184 0.0583299 0.0424563)
(12.6875 0.0232536 -0.0535693)
(12.7086 0.092165 0.0239022)
(13.1221 0.0493677 0.141887)
(13.0669 0.0923376 0.186178)
(12.8865 0.0566727 0.084142)
(12.7197 0.0884466 0.021907)
(12.6888 0.075723 0.0690837)
(12.6271 0.0745484 -0.000359088)
(13.044 0.0840578 0.173237)
(12.7123 0.0912263 0.0333995)
(12.7286 0.0368046 -0.00479711)
(13.0267 0.0835659 0.214485)
(12.6448 0.0811259 0.067571)
(11.5357 1.08555 0.904889)
(11.2907 1.2439 0.894451)
(11.2022 1.30821 0.855525)
(11.3923 1.21803 0.80768)
(11.2583 1.11192 0.767563)
(11.7323 0.948265 0.872587)
(11.5714 0.759342 0.565556)
(11.4474 0.884501 0.693205)
(11.5753 1.27533 1.03375)
(11.4579 0.960394 0.670454)
(11.5625 1.07627 0.708304)
(11.8265 1.1476 0.911414)
(11.6537 0.936295 0.613873)
(12.9571 -0.0693098 -0.0714803)
(13.0802 -0.0292213 -0.0876579)
(12.9762 -0.00557799 -0.038058)
(12.7962 -0.0337265 -0.0121475)
(12.8257 -0.0131808 -0.000551502)
(12.6888 -0.0201429 -0.0409903)
(12.926 -0.0694768 -0.0380896)
(12.8654 -0.0805544 -0.0134138)
(12.7254 -0.0881633 -2.15329e-05)
(13.0718 -0.0347777 -0.101749)
(12.8133 -0.0370842 -0.0307872)
(12.9558 -0.0625297 -0.0572461)
(12.7099 -0.0329817 -0.0155112)
(12.6667 -0.0259408 0.000796076)
(9.96978 -0.0873366 -0.760343)
(9.40636 -0.253356 -0.922703)
(9.25012 -0.0777215 -1.0154)
(8.55499 -0.133784 -0.837872)
(7.98211 -0.224527 -0.918918)
(8.39501 -0.107773 -0.898468)
(11.6971 0.439951 -0.665036)
(11.5419 0.283749 -0.503075)
(11.623 0.262818 -0.478938)
(11.7206 0.330535 -0.51114)
(11.8372 0.353332 -0.521321)
(11.4782 0.237227 -0.222308)
(11.3194 0.366745 -0.148048)
(11.3719 0.360107 -0.119431)
(11.5037 0.402752 -0.251548)
(11.7605 0.409533 -0.26399)
(11.6038 0.333031 -0.0680744)
(11.8348 -0.00248837 -0.1041)
(11.8828 -0.017533 -0.0421043)
(11.9255 -0.0251411 -0.0376515)
(12.1436 -0.0500609 -0.0670595)
(12.0677 -0.000293638 -0.124813)
(11.739 -0.0148901 -0.0603515)
(11.7462 0.0468407 -0.0888339)
(12.0503 0.000749824 -0.139422)
(11.936 -0.00251259 -0.0885703)
(11.8163 -0.0345906 -0.0249796)
(12.0478 0.00358558 -0.137387)
(11.7072 0.0158973 -0.0967873)
(11.6692 0.00163751 -0.0173929)
(11.683 -0.00251332 -0.0453564)
(11.8164 0.450446 -0.0303193)
(11.8885 0.468549 0.0115881)
(11.7208 0.447244 -0.0244293)
(12.0671 0.418583 -0.00263493)
(11.9238 0.407065 0.0401105)
(11.8264 0.49641 -0.0313381)
(11.9008 0.499853 -0.00848893)
(11.8583 0.537736 -0.0547448)
(11.7616 0.526312 -0.0261489)
(12.1567 0.487773 -0.0815644)
(12.1952 0.465122 -0.0713579)
(11.9465 0.497927 -0.0182361)
(11.9153 0.501328 -0.03929)
(11.983 0.495812 -0.00395155)
(12.161 0.00189659 -0.292764)
(11.9474 -0.00171433 -0.322275)
(12.3328 -0.0577516 -0.293209)
(12.2794 -0.040272 -0.232151)
(12.2982 -0.0552145 -0.231816)
(12.3601 -0.0627505 -0.307974)
(12.0771 -0.00716783 -0.239312)
(11.9437 0.0242626 -0.281843)
(11.9482 -0.00667961 -0.30346)
(11.892 -0.0103383 -0.2856)
(12.0583 -0.0279554 -0.312813)
(12.0389 -0.0157299 -0.221319)
(12.0506 -0.00993113 -0.210387)
(11.9132 0.000108598 -0.307401)
(11.8636 -0.00653159 -0.287992)
(11.9789 -0.00373088 -0.219515)
(11.945 0.0195722 -0.281594)
(10.4987 -0.0693656 0.0748394)
(10.2521 0.023415 -0.00269506)
(10.3653 0.0270908 -0.00833245)
(10.3368 0.045635 0.00960429)
(10.6003 -0.123381 0.0757058)
(10.7438 -0.151041 0.0552431)
(10.6441 -0.22533 0.224334)
(11.7995 -0.176727 0.203973)
(11.8735 -0.263265 0.192124)
(11.8173 -0.232525 0.19719)
(10.5796 -0.0738882 0.0921239)
(10.5674 -0.168925 0.130247)
(12.2771 0.176401 -0.0604204)
(11.5315 0.109681 0.0264632)
(11.8953 0.0768597 -0.0893837)
(11.6444 0.00207196 -0.0277084)
(11.6329 0.112477 0.0505561)
(11.8937 -0.00310308 -0.049536)
(11.8004 0.0246336 -0.0377078)
(11.776 0.112428 0.0128067)
(12.1814 0.173259 -0.177849)
(12.0932 0.156126 -0.143936)
(12.2294 0.1805 -0.0635501)
(12.0835 0.148718 -0.135481)
(12.252 0.176331 -0.0573488)
(12.3861 0.0425691 0.12604)
(12.3161 0.0103873 0.138366)
(12.5119 0.0631262 0.151694)
(12.4388 0.00328301 0.175028)
(12.4101 -0.00987986 0.179813)
(12.3363 0.0366863 0.113)
(12.3419 0.00528771 0.128299)
(12.4178 0.0259233 0.148388)
(12.392 0.00739108 0.157742)
(12.418 0.0597721 0.120935)
(12.7729 0.128281 0.151285)
(12.7025 0.108909 0.148161)
(12.4318 0.0487813 0.121618)
(12.6402 0.104432 0.123734)
(12.6184 0.101984 0.119249)
(9.63712 0.194356 0.0104082)
(9.59088 0.143812 0.025884)
(9.39286 0.0147116 -0.0686422)
(9.38262 0.00815888 -0.0639042)
(9.51306 0.146041 -0.0229121)
(9.66684 0.135792 -0.0194268)
(9.68286 0.173363 -0.0184659)
(9.47479 0.0591229 -0.0264479)
(9.55647 0.0765259 -0.0239332)
(3.3919 -0.11172 -0.488244)
(3.26465 -0.0280308 -0.431472)
(3.39384 -0.282061 -0.446768)
(3.51643 -0.302765 -0.474734)
(3.20984 -0.230702 -0.430516)
(3.08913 -0.0816512 -0.474755)
(3.18721 -0.201054 -0.623057)
(3.30002 -0.377626 -0.543599)
(3.26378 -0.0961635 -0.527341)
(3.41438 -0.301137 -0.636711)
(3.60473 -0.413266 -0.560671)
(3.5859 -0.294259 -0.534011)
(3.66854 -0.393284 -0.524547)
(3.33731 0.302783 0.450771)
(1.42356 0.455917 0.687999)
(0.547531 0.226764 0.234601)
(2.59507 0.150055 0.299739)
(2.96354 -0.185258 0.250082)
(2.78591 -0.32817 0.313577)
(2.93373 0.214609 0.194006)
(-1.44721 -0.0300613 0.0256542)
(-1.158 0.582271 0.170011)
(-0.38881 0.403949 0.224005)
(-0.556998 -0.183707 0.113456)
(12.4967 0.0869536 0.124166)
(12.6073 0.108993 0.131311)
(12.6178 0.120444 0.120658)
(12.3396 0.142923 0.0587529)
(12.2688 0.134777 0.0464112)
(12.312 0.0925437 0.0706757)
(12.3371 0.116079 0.0638192)
(12.2688 0.129098 0.0487727)
(12.1916 0.121452 0.0533809)
(12.4796 0.0759132 0.11459)
(12.5261 0.0894207 0.100539)
(12.0571 0.0407937 0.0346552)
(12.0328 0.0413365 0.0623555)
(12.0772 0.0775242 0.0117142)
(12.2362 0.0893964 0.0722156)
(12.0019 0.0395313 0.0481057)
(11.9963 0.0356998 0.0258233)
(-1.59981 -0.170217 -0.934275)
(-1.23051 -0.737836 -0.474866)
(-1.33107 -0.256476 -0.655169)
(-1.36628 -1.19498 -0.143979)
(-2.47484 -0.0991459 -0.344326)
(-2.23591 -0.214094 -0.537207)
(-2.51554 0.187013 -0.53758)
(-0.97732 -1.1178 -0.157963)
(-1.76578 -0.447158 -0.593304)
(-1.71245 -0.788307 -0.120777)
(-1.76741 -0.798477 -0.137269)
(10.9617 0.19034 0.0241686)
(10.9518 0.19471 -0.00156367)
(10.7249 0.123922 0.0123967)
(10.4837 0.0391957 0.044574)
(10.543 0.149113 -0.0280451)
(10.4937 0.0686805 0.018269)
(10.4688 0.0684634 -0.00402678)
(10.3822 0.07488 0.0328484)
(10.6104 0.115022 0.0492643)
(10.2615 0.0152353 0.0224429)
(10.5806 0.118755 0.0357954)
(11.6219 0.339674 0.152517)
(11.599 0.320797 0.123426)
(11.635 0.352726 0.154196)
(11.6083 0.312723 0.114711)
(11.4156 0.31172 0.0733709)
(11.4878 0.337087 0.108449)
(11.2398 0.386491 0.0455201)
(11.3217 0.394177 0.0663885)
(11.4764 0.379966 0.0950803)
(11.3421 0.363743 0.0667971)
(11.1605 0.36863 0.00357426)
(11.2308 0.385201 0.0160763)
(11.3096 0.299161 0.0524599)
(11.3689 0.311062 0.065132)
(11.2757 0.326706 0.052801)
(5.62971 -0.0786815 0.206453)
(4.94069 -0.0345826 0.121424)
(5.04928 -0.0308706 -0.0499727)
(5.60747 -0.0735052 -0.0230568)
(4.20386 0.00242573 -0.0393506)
(12.2097 -0.0332928 0.511069)
(12.307 -0.0535114 0.506173)
(12.4361 -0.0648687 0.547352)
(12.3677 -0.0603867 0.543023)
(12.6872 -0.102511 0.539417)
(12.6641 -0.112619 0.556854)
(12.4822 -0.0679392 0.525586)
(7.92577 2.55665 0.0141821)
(7.48045 2.7238 -0.499932)
(8.85866 2.32624 -0.258359)
(8.71346 2.60198 -0.416606)
(7.96163 3.01732 -0.0566489)
(7.43148 3.05407 -0.592656)
(8.06811 2.29347 0.0361625)
(7.55821 2.40081 -0.587359)
(8.18673 3.07351 -1.24553)
(7.33069 3.12089 -1.30939)
(8.26912 2.18007 -0.0641206)
(7.94297 2.18726 -0.653889)
(8.27006 2.74246 -1.15523)
(7.73666 2.7016 -0.980543)
(8.93359 2.23641 -0.26362)
(8.43556 2.49417 -1.08997)
(7.87648 2.45174 -0.919726)
(8.9497 2.2881 -0.462199)
(9.62123 2.1136 -0.306115)
(9.77591 1.9531 -0.38111)
(9.58548 2.00349 -0.605897)
(9.51309 2.09703 -0.695947)
(9.52453 1.81275 -0.597713)
(9.44513 2.12476 -0.687631)
(9.56777 1.94919 -0.179079)
(9.49906 2.12294 -0.230102)
(9.42246 2.2432 -0.5639)
(8.99424 2.06471 -0.507084)
(9.30699 1.74275 -0.426169)
(9.28986 1.91407 -0.222698)
(9.00701 2.25623 -0.179601)
(10.2112 3.24524 -0.937015)
(10.5615 2.80856 -0.866095)
(10.9851 2.13345 -0.334422)
(10.8979 2.02725 -0.338143)
(10.3527 2.52365 -0.845642)
(10.5792 2.51477 -0.764111)
(10.7141 2.24402 -0.485181)
(10.6903 2.16856 -0.492189)
(10.4666 3.24094 -0.784603)
(10.7988 2.97003 -0.643471)
(9.96362 2.87626 -0.870634)
(10.0406 2.97116 -0.854441)
(10.7569 2.66149 -0.268211)
(10.6686 2.46016 -0.244797)
(10.9779 2.3936 -0.325267)
(10.4113 2.20529 -0.563267)
(10.0988 2.66747 -0.515639)
(10.1709 2.79699 -0.545206)
(10.4792 2.75966 -0.298599)
(10.4678 2.61943 -0.324912)
(10.4021 2.89251 -0.466228)
(10.3181 2.55262 -0.392137)
(13.1104 -0.0582811 0.294146)
(12.8709 -0.0668457 0.269177)
(12.9454 -0.11104 0.28076)
(12.8751 -0.0638906 0.279084)
(12.9563 -0.11031 0.285345)
(13.1651 -0.0471811 0.310599)
(13.0074 -0.0370518 0.300283)
(13.1904 -0.0869829 0.273694)
(12.957 -0.0628862 0.274154)
(13.1207 -0.0451882 0.301856)
(13.098 -0.124101 0.272055)
(13.0041 -0.0498678 0.292455)
(13.1759 -0.105482 0.268612)
(13.0226 -0.0564604 0.286732)
(13.1883 -0.114261 0.264998)
(13.1616 -0.0664011 0.280855)
(4.10346 0.326854 -0.478414)
(-1.31956 0.0706919 -0.542774)
(2.32488 2.44443 0.4046)
(2.58585 2.70924 0.324681)
(9.77776 1.12143 -1.83633)
(9.92684 1.22702 -2.12193)
(3.7493 2.37077 -0.588973)
(3.81931 2.22298 -0.28361)
(10.541 0.744712 -1.69075)
(10.6521 0.727761 -1.86669)
(0.65927 0.60214 0.75259)
(5.79209 0.219103 -0.824304)
(3.94872 1.1701 -0.182927)
(4.74774 2.08655 -0.348266)
(9.71132 1.3187 -1.65592)
(10.6622 1.18145 -1.49694)
(12.5828 0.115643 0.306049)
(12.6357 0.161413 0.295051)
(12.5218 0.115982 0.244119)
(12.4783 0.117389 0.206055)
(12.4436 0.125466 0.216286)
(12.457 0.116235 0.265203)
(12.5778 0.123532 0.258205)
(12.6429 0.134492 0.295594)
(12.5678 0.164728 0.304396)
(12.5257 0.103879 0.308655)
(12.3864 0.133551 0.207075)
(12.366 0.0997804 0.15671)
(12.4214 0.121169 0.226056)
(12.4514 0.119203 0.267016)
(12.3791 0.100442 0.149257)
(12.447 0.106559 0.16213)
(12.5422 0.108507 0.195642)
(12.4888 0.118571 0.20907)
(9.72737 1.76854 -0.117099)
(9.42128 1.69164 0.63106)
(9.33255 2.06492 0.796743)
(9.70317 1.93391 0.140351)
(9.59834 2.08548 0.0145339)
(9.2147 2.5429 0.260685)
(8.70072 2.73281 0.228222)
(9.35156 1.7378 -0.111232)
(9.53598 2.09208 0.559051)
(9.00439 1.94474 0.602901)
(8.85578 2.21568 0.639905)
(8.79382 2.69247 0.349507)
(9.29635 2.4301 0.509367)
(9.72163 1.79905 0.337496)
(9.66585 1.62745 0.331472)
(9.61649 1.66596 -0.058407)
(10.5716 0.665779 -0.255052)
(10.6461 0.667041 -0.206551)
(10.6043 0.610149 -0.244227)
(10.607 0.779491 -0.279097)
(10.718 0.84524 -0.183595)
(10.5477 0.557448 -0.263385)
(10.4817 0.641318 -0.332647)
(10.5198 0.731626 -0.359876)
(10.5806 0.748215 -0.350933)
(10.5171 0.734363 -0.395697)
(10.5725 0.744378 -0.336113)
(10.6457 0.749679 -0.374509)
(10.5928 0.739218 -0.418217)
(10.6983 0.767949 -0.321318)
(10.6382 0.737754 -0.313981)
(10.488 0.604624 -0.299808)
(10.4544 0.634644 -0.357624)
(11.7032 -0.0477746 0.775316)
(11.7103 -0.0217015 0.746851)
(11.8282 0.127254 0.642969)
(11.8307 0.16027 0.658565)
(11.8233 0.168481 0.661962)
(11.822 0.123923 0.638702)
(11.7215 -0.0121514 0.841179)
(11.698 -0.00290144 0.869065)
(11.8253 0.293254 0.787486)
(11.8167 0.385084 0.938991)
(11.6893 -0.00842896 0.700449)
(11.8327 0.127841 0.645839)
(11.8382 0.293663 0.792544)
(11.8382 0.329868 0.874936)
(11.6967 0.0115223 0.668329)
(11.8758 0.292727 0.857485)
(11.7656 0.00857692 0.803367)
(9.91578 -1.37827 0.441281)
(10.273 -1.33455 0.417787)
(10.3825 -1.30559 0.518624)
(9.71435 -1.41473 0.499575)
(10.295 -1.28497 0.296129)
(9.63694 -1.44668 0.432108)
(9.74775 -1.31672 0.0657757)
(9.48684 -1.43778 0.093797)
(10.322 -1.23629 0.332798)
(10.4255 -1.27894 0.409556)
(10.4182 -1.28781 0.521693)
(9.75249 -1.49103 0.448267)
(9.22262 -1.48629 0.0113711)
(9.57559 -1.33666 0.0166834)
(9.45003 -1.50556 -0.0498463)
(9.9144 -1.22368 0.0867212)
(9.17501 -1.60001 0.0316595)
(9.21019 -1.5879 -0.006043)
(12.1851 -0.526234 0.292752)
(12.3825 -0.445271 0.326851)
(12.3807 -0.411197 0.310736)
(12.3635 -0.37451 0.188182)
(12.1448 -0.449657 0.172686)
(12.4176 -0.330186 0.273454)
(12.171 -0.526946 0.299074)
(12.3226 -0.444758 0.311553)
(12.3114 -0.43175 0.297968)
(12.4013 -0.32153 0.273356)
(12.296 -0.393083 0.182069)
(12.2492 -0.451563 0.265341)
(12.3283 -0.363406 0.221716)
(12.1144 -0.54266 0.233685)
(11.7345 -0.759518 0.448636)
(11.8046 -0.711964 0.46501)
(11.6633 -0.67521 0.73695)
(12.0364 -0.545478 0.730456)
(11.6767 -0.66969 0.746903)
(11.6442 -0.712571 0.738379)
(11.4896 -0.807231 0.544368)
(11.8215 -0.702153 0.4376)
(11.9106 -0.644685 0.48005)
(11.5915 -0.802798 0.672291)
(11.6106 -0.772897 0.649731)
(11.5307 -0.789572 0.56387)
(11.8186 -0.709142 0.466252)
(12.1245 -0.548922 0.54403)
(12.1248 -0.555147 0.526548)
(11.6118 -0.746659 0.518425)
(12.0753 -0.581436 0.585281)
(11.7412 -0.706455 0.603666)
(10.6313 3.36139 -0.792245)
(11.0068 3.28626 -0.695776)
(10.9989 3.03959 -0.646462)
(10.4259 3.29395 -0.566924)
(10.7394 3.49469 -0.57307)
(11.3543 2.99298 -0.355771)
(11.2013 2.62842 -0.3236)
(11.0427 3.42228 -0.0223229)
(11.2564 3.24301 0.0135808)
(10.5908 3.35365 -0.178873)
(11.1059 2.56049 -0.267715)
(11.0993 3.58782 -0.203124)
(11.3755 -0.148113 0.796862)
(12.0284 -0.114491 0.81944)
(11.1459 -0.35064 0.756692)
(11.9935 -0.110168 0.806856)
(11.2368 -0.102556 0.811636)
(11.6544 -0.281443 0.694139)
(11.2253 -0.27359 0.739069)
(11.2831 -0.327725 0.70541)
(11.5248 -0.322767 0.722472)
(12.3227 -0.0983358 0.688522)
(12.4727 -0.103841 0.6273)
(12.3128 -0.145516 0.669802)
(12.0903 -0.236153 0.597404)
(12.2244 -0.218245 0.581938)
(12.4548 -0.117903 0.626842)
(12.2197 -0.21154 0.577281)
(12.3553 -0.0698719 0.913645)
(12.1862 0.0335756 0.87445)
(12.2966 -0.0362494 0.898182)
(12.1846 0.0373785 0.846402)
(11.8308 0.0526141 1.00179)
(11.6802 -0.114672 1.08084)
(11.2992 -0.184423 1.09924)
(11.8299 0.0737325 1.11512)
(11.852 0.0512502 0.987004)
(12.1608 0.0497101 0.869468)
(12.2501 -0.0154253 0.895663)
(12.1712 -0.148712 0.962618)
(11.3432 -0.213154 1.05271)
(12.1155 -0.126087 0.944867)
(11.9586 -0.239876 0.977065)
(11.9551 -0.217369 0.987079)
(12.4344 0.47339 0.574255)
(12.4999 0.488502 0.595585)
(12.551 0.419485 0.544715)
(12.3671 0.532913 0.419229)
(12.1688 0.710852 0.544327)
(12.3886 0.292881 0.511353)
(12.3167 0.303551 0.502051)
(12.5742 0.579817 0.534848)
(12.461 0.654887 0.604292)
(12.4056 0.639712 0.439631)
(12.2541 0.72467 0.541167)
(12.3774 0.59583 0.609429)
(12.3165 0.55474 0.582225)
(12.1982 0.518773 0.607042)
(12.2855 0.43685 0.502047)
(12.4627 0.30705 0.514338)
(12.4261 0.365207 0.478551)
(12.348 0.36093 0.499435)
(12.4664 0.530631 0.480485)
(11.1337 -0.272648 -0.574121)
(11.0948 -0.281639 -0.555091)
(11.4729 -0.294234 -0.498111)
(10.7195 -0.295415 -0.579408)
(11.1772 -0.260356 -0.575309)
(10.8097 -0.317667 -0.558686)
(11.0641 -0.339374 -0.577122)
(11.5853 -0.276278 -0.537315)
(11.051 -0.33631 -0.489913)
(11.8016 -0.313786 -0.42292)
(10.8159 -0.344419 -0.553696)
(11.1794 -0.388635 -0.505772)
(11.2524 -0.391955 -0.421687)
(11.2298 -0.409496 -0.446272)
(9.02523 -0.358293 -0.478956)
(8.95738 -0.346308 -0.470468)
(9.65443 -0.402358 -0.321395)
(9.26093 -0.377728 -0.418155)
(9.32456 -0.382441 -0.39039)
(9.42904 -0.323143 -0.421131)
(10.1042 -0.327768 -0.236777)
(9.84342 -0.362627 -0.439611)
(9.66912 -0.350955 -0.457331)
(10.5473 -0.324298 -0.243175)
(10.3862 -0.316342 -0.260118)
(9.22872 -0.345645 -0.497241)
(10.2781 -0.310345 -0.250523)
(10.0633 -0.317155 -0.365233)
(10.0561 -0.307974 -0.351702)
(10.5285 -0.32458 -0.250597)
(10.4312 -0.314322 -0.264221)
(10.1332 -0.259897 -0.323048)
(11.7462 1.27533 -0.153386)
(11.3588 1.37796 -0.572864)
(11.049 1.50869 -0.829328)
(12.3888 0.605341 -0.249462)
(12.3003 0.826224 -0.217855)
(11.7568 1.09608 -0.485819)
(11.9588 1.0204 -0.170729)
(12.5042 0.559416 -0.242872)
(12.335 0.831348 -0.190521)
(11.3789 1.07894 -0.79368)
(11.9005 0.810611 -0.600697)
(4.77229 -0.856724 -0.684527)
(4.92921 -0.92854 -0.659527)
(4.72885 -0.67838 -0.696581)
(4.51941 -0.577465 -0.748389)
(3.35048 -0.00159861 -0.901909)
(2.81822 0.259083 -0.684115)
(2.73345 0.413131 -0.954485)
(2.43415 0.408389 -0.803044)
(5.11984 -0.939135 -0.806965)
(5.37366 -1.00036 -0.814764)
(4.51385 -0.671314 -0.690129)
(3.56444 -0.072322 -0.822036)
(3.50331 0.0706259 -0.878872)
(3.33323 -0.0150009 -0.665005)
(3.0722 0.229668 -0.82883)
(3.16368 0.115591 -0.737295)
(2.53923 0.359498 -0.908713)
(5.14261 -0.874126 -0.786505)
(4.72995 -0.599733 -0.887117)
(5.06732 -0.806026 -0.813395)
(4.51439 -0.564484 -0.955614)
(13.3353 -0.1545 0.343914)
(13.342 -0.160825 0.315022)
(13.3446 -0.0936491 0.367416)
(13.366 -0.123424 0.330804)
(13.3436 -0.104151 0.372242)
(13.3204 -0.160528 0.334193)
(13.3241 -0.158049 0.347596)
(13.3263 -0.0852332 0.34142)
(13.2987 -0.0732125 0.36951)
(13.2114 -0.0829439 0.386137)
(13.2159 -0.0991355 0.361587)
(13.1654 -0.0817784 0.390049)
(13.3239 -0.0933105 0.333569)
(13.2143 -0.0758644 0.384131)
(13.132 -0.0687125 0.369021)
(13.231 -0.0834 0.344257)
(13.1402 -0.0578082 0.371423)
(12.08 0.27163 0.854121)
(11.9331 0.296728 0.883699)
(11.6066 0.225226 1.02209)
(10.9424 0.27332 1.05013)
(12.0338 0.262112 0.902737)
(11.9112 0.265541 0.967581)
(10.9795 0.628047 0.59253)
(10.9538 0.514691 0.743211)
(11.7163 0.211422 1.01099)
(10.9427 0.274595 1.01828)
(11.1417 0.445331 1.02134)
(8.86095 0.193388 0.547149)
(8.88408 0.322138 0.457943)
(8.7137 0.364153 0.503547)
(7.26165 0.371152 0.53706)
(8.08683 0.202375 0.574788)
(6.29238 0.447374 0.612773)
(5.66835 0.460612 0.612295)
(6.7047 0.23514 0.69268)
(7.85055 0.29736 0.634665)
(8.20393 0.30011 0.551281)
(6.38863 0.438352 0.684192)
(6.80109 0.445071 0.647388)
(6.59429 0.383917 0.684636)
(12.342 -0.317596 -0.24248)
(12.3085 -0.296561 -0.235475)
(12.4127 -0.322858 -0.150759)
(12.4356 -0.3238 -0.152201)
(12.2452 -0.37011 -0.22387)
(12.26 -0.357991 -0.214542)
(12.2189 -0.33894 -0.28679)
(12.2009 -0.336986 -0.291976)
(12.386 -0.295204 -0.163907)
(12.4544 -0.313756 -0.175603)
(12.2605 -0.295296 -0.250851)
(12.279 -0.282782 -0.236416)
(12.4874 -0.317213 -0.14304)
(12.2201 -0.350954 -0.255099)
(12.4427 -0.303615 -0.128517)
(12.4112 -0.299449 -0.145993)
(12.2663 -0.29591 -0.228706)
(12.3035 -0.291142 -0.205665)
(12.4024 -0.298379 -0.142399)
(12.4068 -0.30286 -0.138441)
(12.3662 -0.305829 -0.170663)
(12.2886 -0.319998 -0.215455)
(11.8683 -0.503415 -0.457639)
(12.3838 -0.428231 -0.38274)
(11.6288 -0.389424 -0.547317)
(12.4293 -0.328735 -0.423108)
(12.4611 -0.429084 -0.375085)
(11.3878 -0.482496 -0.39783)
(11.566 -0.337101 -0.555256)
(12.4459 -0.316496 -0.416765)
(12.0021 -0.333908 -0.505276)
(11.3665 -0.46971 -0.366682)
(11.931 -0.413908 -0.313443)
(11.9794 -0.447242 -0.365204)
(11.1965 -0.391317 -0.580518)
(12.4039 -0.322406 -0.42088)
(11.9873 -0.319336 -0.503231)
(11.0631 -0.401033 -0.605622)
(11.5861 -0.342773 -0.600802)
(12.1693 -0.383937 -0.398791)
(12.4444 -0.403001 -0.379487)
(12.4177 -0.388939 -0.397774)
(12.66 0.313774 0.227386)
(12.549 0.335489 0.241351)
(12.5523 0.348856 0.311502)
(12.5849 0.338839 0.365626)
(12.6241 0.310221 0.213865)
(12.5536 0.33059 0.235837)
(12.5505 0.340597 0.369391)
(12.4996 0.35569 0.329037)
(12.7083 0.294318 0.300269)
(12.6814 0.285451 0.348104)
(12.7126 0.287861 0.318174)
(12.6247 0.301521 0.237259)
(12.5953 0.304773 0.23522)
(12.5357 0.333266 0.241354)
(12.7299 0.283479 0.32476)
(12.7013 0.282388 0.366585)
(12.6391 0.283887 0.310943)
(12.5113 0.331098 0.239464)
(12.4753 0.343307 0.331513)
(12.5161 0.341267 0.38548)
(12.4819 0.334738 0.322655)
(12.4757 0.340784 0.363439)
(11.3134 0.259162 0.716746)
(11.3131 0.343065 0.730417)
(12.389 0.219054 0.709864)
(12.3281 0.247549 0.682367)
(12.2118 0.227465 0.777741)
(12.0822 0.303673 0.793544)
(12.252 0.225052 0.739776)
(12.1912 0.226489 0.787781)
(11.9893 0.211845 0.755163)
(11.4442 0.233395 0.696495)
(11.3455 0.189463 0.672031)
(11.4627 0.22348 0.669559)
(12.1544 0.327816 0.696531)
(12.2819 0.265828 0.635384)
(12.351 0.226423 0.670099)
(11.6145 0.230122 0.681109)
(11.8891 0.266742 0.625778)
(12.4112 0.383194 0.639677)
(12.4121 0.468419 0.615073)
(12.6747 0.234753 0.601677)
(12.6555 0.288928 0.560495)
(12.7118 0.247837 0.583094)
(12.8209 0.242736 0.576881)
(12.8745 0.209079 0.558042)
(12.7765 0.348048 0.500899)
(12.746 0.331933 0.518873)
(12.6877 0.421632 0.487497)
(12.7584 0.407535 0.474104)
(12.8638 0.25786 0.54462)
(12.7251 0.469449 0.470483)
(12.6424 0.474376 0.468801)
(10.9498 0.830624 -0.406082)
(10.9006 0.758393 -0.256452)
(10.8443 0.708137 -0.253998)
(10.8826 0.771504 -0.437575)
(10.8148 0.763768 -0.441805)
(10.9463 0.618324 -0.300869)
(10.8865 0.555809 -0.271971)
(10.981 0.682845 -0.314139)
(10.9329 0.619671 -0.317668)
(10.8602 0.568157 -0.287233)
(13.0523 -0.16376 0.493432)
(13.0466 -0.18067 0.491087)
(12.9813 -0.127021 0.529688)
(12.9834 -0.130573 0.50407)
(13.0179 -0.210959 0.506289)
(12.9974 -0.21778 0.513204)
(13.0159 -0.144519 0.508119)
(12.9969 -0.115936 0.517317)
(13.0002 -0.206992 0.515853)
(12.9753 -0.106932 0.535888)
(12.9787 -0.133078 0.55124)
(12.9775 -0.115739 0.555864)
(12.9802 -0.0947091 0.541648)
(12.9568 -0.17424 0.544579)
(12.9938 -0.0944778 0.54346)
(12.9836 -0.112167 0.553382)
(12.9508 -0.17246 0.542454)
(8.40953 0.0274176 0.152705)
(8.32512 0.0142591 0.19364)
(8.16775 0.0753676 0.216741)
(7.55402 -0.164044 -0.0102823)
(7.53385 -0.112984 -0.0782475)
(8.06018 0.0849891 0.113901)
(8.32563 -0.412134 -0.406732)
(8.34746 -0.357038 -0.375054)
(8.16282 -0.31882 -0.324126)
(7.98307 -0.31757 -0.294752)
(8.24631 0.102364 0.245844)
(8.32258 0.0737056 0.178766)
(8.4057 -0.114127 0.0867355)
(8.41718 -0.0321509 0.0960167)
(7.92464 -0.275593 -0.269072)
(7.93239 -0.196254 -0.244119)
(7.5961 -0.100071 -0.120391)
(8.20394 0.0721256 0.106731)
(8.36987 -0.148207 0.0449376)
(8.21485 -0.0490621 -0.0030086)
(11.8213 -0.00666862 0.525722)
(11.6742 -0.0695447 0.515461)
(11.6682 -0.00771498 0.496818)
(11.7833 0.0184099 0.519205)
(11.6574 -0.112928 0.535188)
(11.3728 -0.0856575 0.52547)
(11.59 -0.180371 0.515403)
(11.8358 -0.023869 0.475068)
(11.8283 -0.00184705 0.505203)
(11.7728 -0.0632356 0.503527)
(11.4014 -0.20215 0.456996)
(11.3436 -0.114659 0.52439)
(11.7983 0.0231527 0.506924)
(11.5544 -0.0826868 0.50167)
(11.5619 -0.119971 0.483139)
(11.3068 -0.16991 0.482352)
(3.16675 -0.173345 0.557752)
(3.18102 -0.372462 0.706681)
(2.17617 -0.366906 0.93281)
(2.11857 -0.140009 0.883561)
(6.09377 -0.65555 0.440617)
(4.49737 -0.552919 0.428651)
(7.69946 -0.261805 0.568759)
(5.59165 0.115774 0.642305)
(3.31017 0.317703 1.09743)
(4.64231 -0.167702 0.863555)
(7.60704 -0.275736 0.463309)
(5.77159 -0.233965 0.628066)
(4.75089 0.242667 0.591451)
(12.2408 -0.0251239 0.859185)
(12.1891 0.0651169 0.922453)
(12.3153 -0.0573226 0.839311)
(12.4636 -0.0818003 0.767292)
(12.6382 -0.0896014 0.712558)
(12.5246 -0.0634956 0.779385)
(12.1788 0.0735781 0.941348)
(12.3606 0.151573 0.786015)
(12.5065 0.00374355 0.745249)
(12.4501 -0.0636379 0.747155)
(12.7343 -0.0336909 0.674423)
(12.393 0.200827 0.751522)
(11.8119 0.393605 -0.12045)
(11.7648 0.294049 -0.150606)
(11.8163 0.257859 -0.164632)
(11.9084 0.393307 -0.0985778)
(11.8473 0.33714 -0.100699)
(11.8864 0.310982 -0.120679)
(12.0422 0.374121 -0.12642)
(12.1363 0.383408 -0.144345)
(12.0382 0.283643 -0.143571)
(11.9918 0.270993 -0.141717)
(12.0549 0.605736 -0.226579)
(12.1422 0.599868 -0.226791)
(11.9742 0.552418 -0.250041)
(12.038 0.544563 -0.233351)
(11.8794 0.542045 -0.254725)
(11.9271 0.46123 -0.174713)
(11.9459 0.366193 -0.110257)
(11.9876 0.553838 -0.218521)
(12.0162 0.436118 -0.15202)
(11.6147 -0.397673 0.228691)
(11.5489 -0.348178 0.28666)
(11.854 -0.30698 0.177884)
(11.8273 -0.242757 0.229168)
(11.8713 -0.233768 0.254511)
(12.2668 -0.306678 0.33878)
(12.0635 -0.31925 0.327742)
(11.703 -0.325457 0.258674)
(12.0369 -0.364535 0.210354)
(12.7365 -0.243272 0.483931)
(12.7392 -0.263107 0.468866)
(11.8634 -0.321364 0.330297)
(12.7252 -0.308055 0.35079)
(12.4986 -0.31509 0.325182)
(12.6784 -0.264293 0.425077)
(12.8579 -0.24764 0.471763)
(12.8884 -0.235312 0.442173)
(12.5409 -0.315316 0.390299)
(12.8237 -0.243507 0.401324)
(0.27055 0.93146 -0.683835)
(0.401889 0.832511 -1.13609)
(1.26067 0.639631 -0.975934)
(0.888006 0.679537 -0.68185)
(0.809153 0.663016 -0.816419)
(0.95616 0.574524 -1.00744)
(1.69125 0.293169 -0.860857)
(2.01381 0.191121 -0.952463)
(2.20561 0.149596 -0.925023)
(2.27696 0.127835 -0.874319)
(3.04343 -0.124648 -0.815453)
(3.07409 -0.171185 -0.886247)
(2.29078 0.397084 -0.880335)
(2.79068 0.0192273 -0.968902)
(2.56308 0.258249 -0.857585)
(1.64371 0.406261 -0.970208)
(10.9344 0.512316 -0.321947)
(10.8516 0.479812 -0.254046)
(10.9041 0.49092 -0.336021)
(10.9999 0.549829 -0.401683)
(10.9268 0.54299 -0.678677)
(10.85 0.533743 -0.67151)
(10.8599 0.485598 -0.311494)
(10.9601 0.560373 -0.544686)
(10.8953 0.567789 -0.6661)
(10.8464 0.533341 -0.675171)
(10.8175 0.406101 -0.383255)
(10.9113 0.468767 -0.495782)
(10.9009 0.555806 -0.495899)
(10.7793 0.41841 -0.384782)
(10.7374 0.414121 -0.393087)
(10.808 0.510638 -0.517086)