/*--------------------------------*- C++ -*----------------------------------*\
  =========                 |
  \\      /  F ield         | OpenFOAM: The Open Source CFD Toolbox
   \\    /   O peration     | Website:  https://openfoam.org
    \\  /    A nd           | Version:  10
     \\/     M anipulation  |
\*---------------------------------------------------------------------------*/
FoamFile
{
    format      ascii;
    class       volScalarField;
    location    "6";
    object      C;
}
// * * * * * * * * * * * * * * * * * * * * * * * * * * * * * * * * * * * * * //

dimensions      [1 3 0 0 0 0 0];

internalField   nonuniform List<scalar> 
75457
(
0.461855
0.459852
0.472804
0.482952
0.476512
0.477289
0.471843
0.469494
0.494514
0.494374
0.494478
0.481284
0.482954
0.491815
0.0538491
0.064687
0.105572
0.0880909
0.0755067
0.0880263
0.0819911
0.0898457
0.0802266
0.0838616
0.103762
0.067679
0.0577115
0.00149468
0.00101955
0.00108604
0.000865589
0.000592489
0.000521726
0.00168339
0.00126158
0.00161715
0.00189959
0.000716331
0.000633593
0.00100153
0.00128176
0.000838344
0.00126416
0.256988
0.245626
0.282538
0.274797
0.252544
0.0633182
0.0744384
0.0811842
0.0706742
0.0576411
0.0693067
0.0834867
0.0914239
0.0674615
0.0728421
0.0679019
0.0604194
0.0642623
0.0802512
0.5
0.5
0.5
0.5
0.5
0.5
0.5
0.5
0.5
0.5
0.5
0.5
0.5
0.5
0.5
0.000195645
1.63911e-05
3.4508e-07
0.000554939
6.37587e-05
1.15615e-05
5.44272e-07
1.92149e-07
5.8377e-08
1.04722e-06
3.36445e-06
8.89307e-05
0.000285459
4.35484e-08
5.41799e-07
7.78949e-05
2.26518e-07
0.404186
0.420489
0.420031
0.42885
0.399991
0.408871
0.422335
0.414849
0.5
0.5
0.5
0.5
0.5
0.5
0.5
0.5
0.5
0.5
0.5
0.5
0.5
0.5
0.5
0.5
0.5
0.5
0.5
0.5
0.5
0.5
0.5
0.5
0.5
0.5
0.5
0.5
0.5
0.5
0.5
0.5
0.5
0.5
0.5
0.5
0.5
0.5
0.5
0.5
0.5
0.5
0.5
0.5
0.5
0.5
0.499838
0.499854
0.499882
0.499892
0.499887
0.499926
0.499913
0.499939
0.499952
0.49993
0.499917
0.499918
0.49991
0.499947
0.499941
0.5
0.5
0.5
0.5
0.5
0.5
0.5
0.5
0.5
0.5
0.5
0.5
0.5
0.498642
0.498673
0.499055
0.498515
0.498893
0.498467
0.498556
0.498181
0.497931
0.498222
0.498005
0.497869
0.497505
0.497778
0.40375
0.38987
0.388553
0.359713
0.342641
0.355871
0.499998
0.499999
0.499998
0.499998
0.499997
0.499997
0.499999
0.499998
0.499998
0.499995
0.499995
0.433814
0.429382
0.423451
0.421183
0.43043
0.418492
0.423274
0.407776
0.397244
0.413142
0.421725
0.413806
0.407552
0.405265
0.499993
0.499989
0.499987
0.499979
0.499984
0.499978
0.499987
0.499991
0.499986
0.49999
0.499986
0.499973
0.499992
0.499982
0.348774
0.341232
0.310696
0.307022
0.319274
0.325299
0.34886
0.335965
0.324453
0.296974
0.295559
0.307469
0.333281
0.308615
0.312398
0.322553
0.325376
0.323441
0.326851
0.349199
0.337464
0.36427
0.360223
0.334488
0.383282
0.395504
0.390939
0.339175
0.341399
0.261265
0.260223
0.244093
0.249879
0.27634
0.301144
0.281398
0.29345
0.295962
0.274833
0.276943
0.262868
0.290948
0.495666
0.496362
0.495113
0.49767
0.497251
0.497403
0.497096
0.497947
0.497629
0.496436
0.496994
0.496335
0.497958
0.496818
0.497679
4.13652e-05
5.46666e-05
2.88256e-05
3.32004e-05
3.24427e-05
7.81717e-05
5.77903e-05
4.22168e-05
6.0214e-05
1.87184e-08
2.10094e-08
5.29208e-08
3.72488e-08
3.03164e-08
2.03119e-08
2.74467e-08
4.10435e-08
1.39878e-08
2.02251e-08
2.54159e-08
1.62956e-08
2.27468e-08
0.000143422
2.5617e-05
1.30347e-05
0.0001504
0.000238341
0.000186203
0.000140047
6.41102e-06
7.93993e-06
2.30746e-05
1.41452e-05
0.296296
0.30456
0.318265
0.312523
0.301119
0.279046
0.288791
0.320429
0.306637
0.311759
0.329923
0.315428
0.296937
0.290421
0.330434
0.29093
0.303262
0.000818775
0.00204101
0.000872097
0.00692531
0.000789142
0.000954141
0.000229484
0.0090344
0.00220435
0.00289954
0.00379865
0.0123939
0.0141005
0.0173506
0.0151663
0.0104301
0.0110117
0.00880346
0.0123646
0.0142318
0.00981925
0.0122505
0.000162604
0.000210188
0.000191452
0.000258125
0.000152972
0.000125097
0.000175464
0.00014452
0.000200057
0.000246437
0.000126323
0.000114134
0.000177272
0.000233298
0.00018032
0.0010798
0.000805443
0.00115044
0.00175826
0.000603613
0.183129
0.200381
0.185674
0.191054
0.216892
0.205934
0.215708
0.499999
0.499999
0.5
0.499999
0.499999
0.499998
0.499999
0.499999
0.499998
0.499998
0.5
0.499999
0.499999
0.499999
0.5
0.499999
0.499999
0.499999
0.5
0.5
0.5
0.5
0.5
0.5
0.5
0.5
0.5
0.5
0.5
0.5
0.5
0.499998
0.499998
0.499999
0.499999
0.499999
0.499999
0.499999
0.499999
0.499998
0.499998
0.499999
0.499999
0.499999
0.499999
0.499999
0.499999
0.499999
0.499999
0.499999
0.499999
0.499999
0.499999
0.464026
0.437106
0.440179
0.441708
0.4451
0.478951
0.46029
0.471737
0.442048
0.468655
0.450114
0.456663
0.468178
0.452425
0.463811
0.470056
0.488039
0.471588
0.477433
0.47909
0.495225
0.495031
0.4854
0.484972
0.496704
0.496884
0.464379
0.490244
0.487106
0.487355
0.495044
0.496455
0.499996
0.499994
0.499996
0.499997
0.499997
0.499998
0.499995
0.499993
0.499995
0.499997
0.499999
0.499998
0.499998
0.499997
0.499996
0.499995
0.499995
0.499996
0.5
0.5
0.5
0.5
0.5
0.5
0.499999
0.5
0.5
0.5
0.5
0.5
0.5
0.5
0.5
0.5
0.5
0.5
0.5
0.5
0.5
0.5
0.5
0.5
0.5
0.5
0.5
0.5
0.5
0.5
0.5
0.5
0.5
0.499999
0.499999
0.5
0.5
0.5
0.5
0.499999
0.499999
0.5
0.5
0.499999
0.5
0.5
0.5
0.499999
0.5
0.499999
0.0185376
0.0239973
0.0290774
0.0223098
0.0261485
0.0187777
0.0210183
0.0159547
0.0311292
0.0362142
0.0327933
0.0249813
0.017011
0.0279442
0.0262843
0.0302535
0.0176369
0.0209935
0.0451075
0.0559826
0.0484937
0.0422612
0.0391612
0.0437767
0.039492
0.0417814
0.0343217
0.0363552
0.0364952
0.0286334
0.0308499
0.033973
0.0755876
0.0728595
0.0728751
0.0919627
0.084937
0.0794489
0.0711355
0.0868196
0.0830466
0.0831169
0.0895751
0.0801532
0.0895526
0.0921127
0.0992273
0.0904058
0.103211
0.0968318
0.499998
0.499997
0.499998
0.499998
0.499997
0.499997
0.499998
0.499998
0.499998
0.499999
0.499999
0.499997
0.299222
0.331911
0.320038
0.340873
0.30552
0.322324
0.325833
0.33669
0.325553
0.354645
0.366674
0.379173
0.377074
0.365131
0.373643
0.374721
0.0454626
0.040273
0.0388683
0.0365052
0.03545
0.0369064
0.023958
0.0266771
0.0323998
0.0333173
0.0352242
0.0439914
0.0293818
0.0304503
0.0326669
0.0360752
0.499995
0.499993
0.499992
0.499994
0.49999
0.499997
0.499997
0.499988
0.499988
0.499991
0.499987
0.49999
0.499993
0.499995
0.499997
0.499995
0.499997
0.499998
0.499992
0.0194373
0.0159125
0.0128519
0.0193546
0.0220477
0.0139464
0.0267768
0.0306462
0.0126116
0.0228991
0.0168662
0.0248451
0.0162756
0.020481
0.000574012
0.000442757
0.000840046
0.000849802
0.000522338
0.00125132
0.00135664
0.000958835
0.00105318
0.0024021
0.00153808
0.00119216
0.0023958
0.00136288
0.00179891
0.00183616
0.00138304
0.0019973
0.49211
0.484426
0.48339
0.497177
0.496823
0.48603
0.492837
0.496917
0.496561
0.484013
0.487523
0.000730204
0.000949796
0.00125938
0.000928681
0.000319826
0.000353433
0.000182684
0.000212979
0.00173062
0.00269704
0.00186875
0.00164798
0.00120961
0.00083056
0.000827814
0.000981906
0.000379015
0.00300947
0.00221976
0.00306776
0.00156279
0.484112
0.484918
0.489769
0.48759
0.488368
0.480251
0.481984
0.488017
0.489717
0.483368
0.478402
0.480589
0.485822
0.485455
0.483077
0.481578
0.48616
0.0653593
0.0596058
0.0611825
0.0475611
0.071911
0.0657307
0.0519884
0.0477337
0.066656
0.0507932
0.0580241
0.00432081
0.00345353
0.00340866
0.00133439
0.00258271
0.000564946
0.000348506
0.00132658
0.00196372
0.00207558
0.000507185
0.000690038
0.000847729
0.0300332
0.0248486
0.0219458
0.0268195
0.0218506
0.0182918
0.0234735
0.0193706
0.0249729
0.0302927
0.0170461
0.0210656
0.0296816
0.0164754
0.0235146
0.018699
0.0161204
0.0185315
0.017052
0.0188152
0.0210631
0.0144982
0.153946
0.17613
0.136476
0.172803
0.164301
0.108377
0.127925
0.162381
0.132931
0.0893661
0.10222
0.123222
0.0998583
0.149679
0.122823
0.0854536
0.0960077
0.104966
0.150166
0.135822
0.0946753
0.0915006
0.0946042
0.0957438
0.0866234
0.0845639
0.0852289
0.0833377
0.0978818
0.0813402
0.0876924
0.0793789
0.0707937
0.0772618
0.0954406
0.0850367
0.0707177
0.0694435
0.075945
0.0770687
0.0641386
0.0720224
0.0349497
0.0374894
0.0608683
0.0644674
0.0523315
0.0516979
0.0447536
0.0473085
0.0395001
0.0335184
0.0373987
0.0421685
0.0572198
0.0529289
0.052131
0.0366922
0.0434857
0.341277
0.334751
0.350671
0.354459
0.356216
0.341277
0.35424
0.340594
0.349209
0.337332
0.331408
0.341897
0.324741
0.327636
0.5
0.5
0.5
0.5
0.5
0.5
0.5
0.5
0.5
0.5
0.357516
0.346479
0.320382
0.334984
0.340132
0.347924
0.346507
0.358855
0.325335
0.326895
0.323325
0.335104
0.338454
0.319923
0.348649
0.345388
0.331684
0.118716
0.133299
0.130365
0.109676
0.0918906
0.106508
0.154358
0.140876
0.116511
0.111188
0.138051
0.12052
0.128709
0.114244
0.119312
0.0932938
0.0826762
0.105418
0.109319
0.096223
0.5
0.5
0.5
0.5
0.5
0.499999
0.5
0.5
0.5
0.5
0.499999
0.499999
0.5
0.499999
0.499999
0.499999
0.239352
0.231086
0.187918
0.179121
0.359213
0.288689
0.393669
0.311211
0.20583
0.270033
0.391048
0.311127
0.269013
0.254215
0.257275
0.265373
0.288378
0.2836
0.263837
0.264277
0.272283
0.273312
0.299583
0.294741
0.280987
0.499999
0.499999
0.499999
0.499999
0.499999
0.499999
0.499997
0.499996
0.499998
0.499998
0.499997
0.499997
0.499998
0.499998
0.499999
0.499998
0.499998
0.499998
0.499998
0.377185
0.364335
0.382921
0.375408
0.373699
0.397856
0.381591
0.361077
0.392741
0.400568
0.408441
0.357241
0.417703
0.398223
0.414974
0.40742
0.416078
0.391127
0.42162
2.72792e-06
5.41611e-06
2.22391e-05
9.02783e-06
5.22357e-06
1.08488e-05
3.92787e-06
7.49426e-06
1.30803e-05
1.88354e-05
6.87205e-05
4.64019e-05
5.73273e-05
2.87047e-05
7.04355e-05
2.15438e-05
0.5
0.5
0.5
0.5
0.5
0.5
0.5
0.5
0.5
0.5
0.5
0.5
0.5
0.5
0.5
0.5
0.415933
0.34222
0.424777
0.351138
0.418371
0.305354
0.463657
0.431545
0.472773
0.474036
0.465329
0.430822
0.344265
0.282222
0.420428
0.463344
0.465544
0.464992
0.432169
0.325318
0.5
0.5
0.5
0.5
0.5
0.5
0.5
0.5
0.5
0.5
0.5
0.5
0.5
0.5
0.5
0.499967
0.499967
0.499926
0.499907
0.499921
0.499929
0.499868
0.499913
0.499731
0.499622
0.499697
0.499838
0.499654
0.499704
0.497403
0.496688
0.498688
0.497558
0.497388
0.497164
0.498332
0.499127
0.498099
0.498959
0.498564
0.499285
0.498537
0.499025
0.499294
0.499187
0.143025
0.132869
0.14486
0.159786
0.123605
0.13315
0.137593
0.150565
0.167481
0.128099
0.119268
0.132214
0.139447
0.162753
0.114949
0.146148
0.130409
0.14962
0.135692
0.450952
0.413234
0.414652
0.439691
0.451385
0.391294
0.424218
0.417282
0.433806
0.425435
0.443473
0.430477
0.442487
0.437659
0.408452
0.409609
0.459303
0.432203
0.421926
0.412813
0.460875
0.448278
0.408183
0.421356
0.456759
0.5
0.5
0.5
0.5
0.5
0.5
0.5
0.5
0.5
0.5
0.5
0.5
0.5
0.5
0.5
0.5
0.5
0.5
0.5
0.5
0.499625
0.499554
0.499553
0.499407
0.499506
0.499548
0.499461
0.49943
0.499493
0.499315
0.499178
0.499305
0.0820454
0.0903582
0.0647368
0.0642658
0.0562567
0.0938191
0.0913653
0.0828919
0.0734027
0.0775902
0.0613912
0.0676278
0.0687579
0.0747191
0.0776274
0.0775946
0.082473
0.0879459
0.00879312
0.00634058
0.0076945
0.00531066
0.00742471
0.0143993
0.0118892
0.0130069
0.0101621
0.00670016
0.00811054
0.010049
0.0175005
0.013969
0.0116503
0.00989444
0.0144928
0.0114875
0.00781595
0.00729675
0.00893954
0.00857969
0.00612773
0.00916755
0.00631222
0.00507835
0.011604
0.00792663
0.00972815
0.00777681
0.00609359
0.00541024
0.00766936
0.0122866
0.0100784
0.0018023
0.00279194
0.00215473
0.00555501
0.0035752
0.00363749
0.00504966
0.00359988
0.00126907
0.45492
0.45132
0.440304
0.453985
0.433264
0.436509
0.429924
0.433943
0.44668
0.449918
0.427709
0.444001
0.0629717
0.0565513
0.0616548
0.0595706
0.0674733
0.071513
0.0646187
0.0684254
0.0780108
0.0762631
0.0814502
0.0706334
0.0697898
0.0751491
0.0758908
0.0784857
0.5
0.5
0.5
0.5
0.5
0.5
0.5
0.5
0.5
0.5
0.327231
0.313384
0.350581
0.344835
0.34531
0.332233
0.352896
0.351545
0.288794
0.338634
0.322385
0.319663
0.335562
0.331466
0.315981
0.303256
0.306892
0.344746
0.140382
0.145059
0.127459
0.154041
0.166621
0.137447
0.142896
0.130456
0.160376
0.186248
0.174423
0.167823
0.157185
0.174637
0.153903
0.16287
0.173081
0.16154
0.5
0.5
0.5
0.5
0.499999
0.499999
0.5
0.5
0.5
0.5
0.5
0.5
0.5
0.5
0.5
0.5
0.5
0.5
0.5
0.5
0.5
0.5
0.5
0.5
0.5
0.5
0.5
0.5
0.5
0.5
0.5
0.5
0.5
0.5
0.459841
0.456317
0.457454
0.465588
0.454011
0.449498
0.45558
0.447628
0.476414
0.46537
0.454112
0.476008
0.479315
0.452151
0.481593
0.479935
0.47739
0.482228
0.484783
0.498861
0.499336
0.49926
0.499647
0.492476
0.4919
0.49612
0.494594
0.499181
0.499175
0.494965
0.498085
0.499567
0.49404
0.490902
0.49594
0.497943
0.49597
0.498157
0.496031
0.00351676
0.00503506
0.00266436
0.00629799
0.00405862
0.00343165
0.00373081
0.00259619
0.0053147
0.00436741
0.00253888
0.00383067
0.00254843
0.00390007
0.00315349
0.004615
0.0079818
0.00690047
0.00472906
0.000632067
0.00109324
0.00152343
0.00102904
0.000883984
0.00041966
0.00483116
0.00480517
0.00418019
0.0139452
0.0113176
0.000895702
0.00305581
0.00758751
0.00210706
0.00190287
0.5
0.5
0.5
0.5
0.5
0.5
0.5
0.5
0.5
0.5
0.5
0.5
0.5
0.5
0.5
0.5
0.5
0.5
0.5
0.5
0.499985
0.499986
0.49999
0.499988
0.499985
0.499981
0.499982
0.499979
0.49998
0.499986
0.499983
0.499973
0.499976
0.499973
0.499964
0.499959
0.499976
0.499967
0.499967
0.49998
0.5
0.5
0.5
0.5
0.5
0.5
0.5
0.5
0.5
0.5
0.5
0.5
0.5
0.5
0.5
0.5
0.5
0.0456457
0.0438494
0.0530689
0.047311
0.051242
0.0474371
0.0429859
0.0571818
0.0433569
0.0522278
0.0471443
0.0425621
0.5
0.5
0.5
0.5
0.5
0.5
0.5
0.5
0.5
0.5
0.5
0.5
0.5
0.5
0.5
0.5
0.5
0.5
0.5
0.5
0.5
0.5
0.5
0.5
0.5
0.5
0.5
0.5
0.5
0.5
0.5
0.5
0.5
0.5
0.5
0.5
0.5
0.5
0.5
0.5
0.5
0.5
0.5
0.5
0.5
0.5
0.5
0.5
0.5
0.5
0.5
0.5
0.5
0.5
0.499999
0.5
0.5
0.5
0.5
0.5
0.5
0.5
0.5
0.5
0.5
0.5
0.5
0.5
0.499549
0.499673
0.499418
0.499323
0.499388
0.499238
0.499706
0.499582
0.499439
0.499529
0.499521
0.499694
0.499725
0.499655
0.499698
0.49962
0.5
0.5
0.5
0.5
0.5
0.5
0.5
0.5
0.5
0.5
0.5
0.5
0.5
0.5
0.5
0.5
0.5
0.5
0.5
0.5
0.5
0.5
0.5
0.5
0.5
0.5
0.5
0.5
0.5
0.5
0.5
0.5
0.5
0.5
0.498708
0.499122
0.499061
0.498615
0.499294
0.497074
0.494954
0.498894
0.494915
0.496464
0.49812
0.495983
0.495381
0.49888
0.00456628
0.00364703
0.0038685
0.00959067
0.5
0.5
0.5
0.5
0.5
0.5
0.5
0.5
0.5
0.5
0.5
0.5
0.5
0.5
0.5
0.5
0.5
0.5
0.5
0.5
0.5
0.5
0.00488985
0.00921866
0.00469758
0.00170715
0.00512635
0.00876692
0.00688879
0.00495679
0.00538303
0.00327314
0.00117606
0.00391002
0.00224522
0.000818504
0.00223786
0.00259646
0.0304898
0.0383676
0.0261099
0.0259451
0.0382532
0.0341755
0.0293639
0.032347
0.0347292
0.0372484
0.0305271
0.0211582
0.0223233
0.0173341
0.0290248
0.0246808
0.029355
0.033301
0.0280131
0.0250656
0.0203026
0.0238729
0.0811546
0.0861776
0.0993188
0.0872689
0.109009
0.122982
0.0994754
0.1073
0.0744661
0.120699
0.109442
0.11348
0.100278
0.0963302
0.0879842
0.12524
0.120947
0.110341
0.105522
0.155907
0.139116
0.118362
0.133721
0.138305
0.126758
0.155388
0.16171
0.108187
0.120043
0.106419
0.10164
0.089109
0.115055
0.0977046
0.140317
0.124059
0.108486
0.0881795
0.0814943
0.0973129
0.0721127
0.499995
0.49999
0.499986
0.49999
0.499993
0.499996
0.499996
0.499992
0.499989
0.499982
0.499985
0.499991
0.499987
0.499989
0.499994
0.499994
0.499992
0.499985
0.499992
0.439821
0.431296
0.429457
0.436235
0.441944
0.433109
0.441215
0.450048
0.438886
0.447443
0.43792
0.407853
0.419279
0.419972
0.424636
0.414041
0.429198
0.499399
0.499245
0.49909
0.499165
0.499239
0.499054
0.498854
0.499063
0.49907
0.498608
0.498996
0.498879
0.498621
0.498766
0.00587417
0.00666009
0.00832579
0.00799136
0.00980468
0.0128554
0.00760216
0.0104036
0.0143851
0.0196089
0.0225786
0.0119515
0.0116914
0.0161185
0.0180712
0.0106926
0.0127871
0.000223195
0.00026119
0.000301252
0.000253586
0.000282833
0.00036049
0.00018589
0.000212386
0.000385197
0.000308586
0.000409187
0.000429431
0.000376475
0.000453945
0.000199093
0.000342054
0.000528483
0.000511077
0.000566247
0.000372215
0.000303742
0.000266569
0.000224555
0.000167212
0.000199613
0.000143346
0.000215763
0.00022625
0.000200054
0.000276642
0.000321443
0.000280228
0.000330951
0.00037173
0.000427379
0.000446711
0.000499358
0.000566776
0.000299619
0.000401601
0.0175556
0.0158419
0.029104
0.0225734
0.0361834
0.0287002
0.02145
0.0251082
0.018539
0.0274264
0.0272103
0.0324626
0.035596
0.047502
0.0238813
0.031464
0.0338235
0.499992
0.49999
0.499989
0.49999
0.499989
0.499988
0.499985
0.499994
0.499992
0.499987
0.17439
0.184212
0.200416
0.188074
0.223343
0.210547
0.202137
0.207744
0.220637
0.209411
0.234793
0.239548
0.212455
0.201918
0.197602
0.197703
0.227192
0.211608
0.370215
0.355319
0.358156
0.346778
0.381093
0.367308
0.335589
0.344616
0.364297
0.353852
0.356421
0.36964
0.368758
0.000836746
0.000658657
0.000923237
0.000731987
0.000703776
0.00118446
0.000829669
0.000655714
0.000531606
0.000681292
0.0010105
0.000700735
0.000485072
0.000543378
0.274333
0.285956
0.252725
0.270942
0.268754
0.257096
0.246474
0.252968
0.24447
0.224421
0.232101
0.240006
0.218162
0.234018
0.233366
4.72828e-07
1.17989e-06
4.33959e-07
1.59272e-07
8.74758e-07
3.53017e-07
0.000364351
0.000130474
1.78443e-07
4.2953e-07
0.000759925
0.000264749
3.48009e-06
4.35847e-06
2.27462e-06
2.02393e-05
1.26932e-05
8.95229e-05
0.5
0.5
0.5
0.5
0.5
0.5
0.5
0.5
0.5
0.5
0.49136
0.491009
0.488563
0.488783
0.493669
0.492545
0.493635
0.494888
0.494033
0.49275
0.493133
0.487378
0.486627
0.4921
0.491937
0.493225
0.491018
0.489314
0.488453
0.489759
0.487936
0.490966
1.9318e-06
1.3642e-06
5.38458e-06
2.88619e-06
1.281e-06
8.49398e-07
3.81505e-06
8.66247e-06
1.49879e-05
2.04419e-06
2.07971e-06
2.2246e-06
6.36226e-06
5.98686e-06
1.02456e-05
4.92514e-06
5.05418e-06
2.06626e-06
0.5
0.5
0.5
0.5
0.5
0.5
0.5
0.5
0.5
0.5
0.5
0.5
0.5
0.5
0.5
0.5
0.5
0.5
0.5
0.477154
0.475453
0.48733
0.484163
0.434369
0.430577
0.388816
0.373351
0.358733
0.360742
0.444294
0.455697
0.47656
0.465325
0.350428
0.338581
0.373238
0.427849
0.5
0.5
0.5
0.5
0.5
0.5
0.5
0.5
0.5
0.5
0.5
0.5
0.5
0.5
0.5
0.5
0.5
0.5
0.5
0.5
0.5
0.5
0.5
0.5
0.5
0.5
0.5
0.5
0.5
0.5
0.5
0.5
0.5
0.5
0.5
0.5
0.5
0.5
0.5
0.5
0.5
0.5
0.5
0.5
0.5
0.5
0.5
0.5
0.5
0.5
0.5
0.5
0.5
0.5
0.5
0.5
0.5
0.5
0.5
0.5
0.5
0.5
0.5
0.5
0.5
0.5
0.5
0.5
0.5
0.5
0.5
0.5
0.5
0.5
0.5
0.5
0.5
0.5
0.5
0.5
0.482031
0.482256
0.481973
0.492618
0.491144
0.489436
0.48491
0.488563
0.488148
0.491591
0.49457
0.485918
0.4918
0.492199
0.489074
0.483891
0.485056
0.480961
0.487434
0.481152
0.484996
0.48575
0.481647
0.483964
0.480233
0.487187
0.477024
0.482625
0.494911
0.496746
0.49657
0.49221
0.485875
0.5
0.5
0.5
0.5
0.5
0.5
0.5
0.5
0.5
0.5
0.5
0.5
0.5
0.5
0.5
0.166222
0.167031
0.184474
0.196295
0.179793
0.169115
0.150945
0.149627
0.151351
0.5
0.5
0.5
0.5
0.5
0.5
0.5
0.5
0.5
0.5
0.5
0.5
0.5
0.5
0.5
0.5
0.5
0.5
0.5
0.5
0.5
0.5
0.499993
0.499995
0.499996
0.499991
0.499993
0.499995
0.499991
0.499995
0.499996
0.499993
0.499994
0.499987
0.499988
0.499991
0.499984
0.499987
0.499991
0.499994
0.499985
0.499991
0.5
0.5
0.5
0.5
0.5
0.5
0.5
0.5
0.5
0.5
0.5
0.5
0.5
0.5
0.5
0.5
0.5
0.5
0.5
0.5
0.5
0.5
0.5
0.5
0.5
0.5
0.441589
0.444343
0.437134
0.433477
0.465738
0.458633
0.457487
0.462175
0.44575
0.46914
0.460665
0.432331
0.438623
0.447162
0.450164
0.456302
0.445136
0.436925
0.457017
0.457277
0.464328
0.469501
0.465779
0.451005
0.461081
0.452313
0.499232
0.499135
0.499342
0.499205
0.499309
0.499353
0.499513
0.49775
0.498374
0.497703
0.498165
0.498196
0.497597
0.498845
0.49899
0.499386
0.499008
0.498409
0.499999
0.499999
0.499999
0.499999
0.499999
0.499999
0.499998
0.499999
0.499999
0.499999
0.499998
0.499999
0.499999
0.5
0.5
0.5
0.5
0.5
0.5
0.5
0.5
0.5
0.5
0.5
0.5
0.5
0.267655
0.271085
0.26188
0.258078
0.255333
0.255798
0.236228
0.231258
0.231595
0.258324
0.243847
0.246287
0.249536
0.264353
0.2726
0.280123
0.269762
0.258056
0.252878
0.244494
0.273509
0.288713
0.276861
0.281037
0.30012
0.301518
0.289893
0.293605
0.332842
0.345862
0.35062
0.339768
0.353459
0.358463
0.374242
0.366786
0.383451
0.371615
0.374664
0.362435
0.345678
0.362295
0.377387
0.370376
0.429651
0.435399
0.384776
0.398012
0.421214
0.431084
0.399784
0.390937
0.408155
0.42567
0.427671
0.426974
0.413318
0.404585
0.00159863
0.00195206
0.00571969
0.00632597
0.00340146
0.00656718
0.00296517
0.00188136
0.00422236
0.00512645
0.0019398
0.5
0.5
0.5
0.5
0.5
0.5
0.5
0.5
0.5
0.5
0.5
0.5
0.5
0.499952
0.499983
0.4999
0.499818
0.499907
0.499995
0.499991
0.499992
0.499996
0.499983
0.499997
0.499994
0.499996
0.499997
0.499994
0.499998
0.499995
0.499997
0.499996
0.499998
0.499994
0.499998
0.5
0.5
0.5
0.5
0.5
0.5
0.5
0.5
0.5
0.5
0.5
0.5
0.5
0.5
0.5
0.5
0.5
0.5
0.5
0.5
0.5
0.5
0.5
0.5
0.5
0.5
0.5
0.5
0.5
0.5
0.5
0.5
0.5
0.5
0.5
0.5
0.5
0.5
0.5
0.5
0.5
0.5
0.5
0.499946
0.499966
0.499973
0.499957
0.499974
0.499987
0.499989
0.499987
0.49999
0.499982
0.499984
0.499871
0.49986
0.499983
0.499988
0.499943
0.499953
0.499867
0.499944
0.49994
0.499963
0.432152
0.43709
0.437542
0.445015
0.437288
0.43024
0.448704
0.448382
0.454971
0.448299
0.458492
0.459212
0.440887
0.445082
0.445789
0.449345
0.443483
0.452187
0.371043
0.28547
0.349733
0.332981
0.360337
0.303438
0.394553
0.386257
0.295326
0.390933
0.348929
0.284425
0.346723
0.336616
0.313291
0.320781
0.376924
0.334984
0.284096
0.382712
0.285814
0.324254
0.34779
0.372269
0.3167
0.272479
0.282115
0.0207837
0.0227502
0.0265376
0.0237021
0.0300814
0.469315
0.459768
0.468975
0.482865
0.454376
0.487222
0.458415
0.347806
0.355074
0.422314
0.351601
0.347376
0.441818
0.387177
0.485393
0.000119626
0.000202473
0.00184375
0.0010007
0.000106958
0.00314361
0.00216405
6.49743e-05
5.84433e-05
0.00177085
0.00287806
0.000283029
0.000648689
0.00188531
0.0015686
0.000761051
0.000408616
0.000741288
0.499991
0.49999
0.499984
0.499986
0.49966
0.499607
0.499806
0.499784
0.499943
0.499964
0.499528
0.499382
0.499234
0.499282
0.49997
0.499987
0.499882
0.499418
0.499484
0.499857
0.48478
0.484077
0.488763
0.490639
0.491168
0.492482
0.489561
0.488055
0.482749
0.487532
0.491703
0.491783
0.491412
0.491324
0.499379
0.499821
0.498827
0.498748
0.499909
0.499873
0.499017
0.49971
0.499859
0.499082
0.498855
0.498934
0.499912
0.499879
0.499927
0.499865
0.499893
0.499872
0.454118
0.428916
0.429139
0.379664
0.360572
0.41061
0.417249
0.476209
0.367371
0.413436
0.468775
0.464098
0.469925
0.463671
0.439383
0.479089
0.3907
0.416583
0.480456
0.466996
0.47988
0.484723
0.499968
0.499952
0.499911
0.499909
0.499972
0.499957
0.499967
0.499984
0.499979
0.499959
0.499949
0.499954
0.499965
0.499979
0.499974
0.499926
0.499973
0.499963
0.499943
0.499955
0.499997
0.499995
0.499991
0.499999
0.499992
0.499999
0.499984
0.499987
0.499987
0.499999
0.499998
0.499995
0.499999
0.499999
0.499994
0.0321851
0.019186
0.0275137
0.0254766
0.0385146
0.0202494
0.0257219
0.0618989
0.498802
0.498633
0.499556
0.499499
0.499388
0.49931
0.499436
0.498992
0.499386
0.499276
0.49867
0.499072
0.499649
0.49973
0.499737
0.499659
0.499595
0.499679
0.49961
0.499765
0.499704
0.499792
0.499718
0.499787
0.499608
0.499646
0.499528
0.499742
0.499806
0.499766
0.499225
0.499161
0.498428
0.498759
0.499307
0.499379
0.498783
0.498026
0.498376
0.498181
0.498459
0.498614
0.499098
0.497793
0.498087
0.498677
0.498247
0.498039
0.00333189
0.00276135
0.00301117
0.0036754
0.0036167
0.00491998
0.00462568
0.00367741
0.00449637
0.00470328
0.00412109
0.00575657
0.0060127
0.00692085
0.00399996
0.00520527
0.00632499
0.00587002
0.00892085
0.0078683
0.00504744
0.00715847
0.5
0.5
0.5
0.5
0.5
0.5
0.5
0.5
0.5
0.5
0.5
0.5
0.5
0.5
0.5
0.5
0.0328519
0.0436297
0.0624897
0.0611325
0.0450889
0.0604693
0.120618
0.107261
0.127777
0.134287
0.173498
0.157745
0.105042
0.112028
0.11099
0.17331
0.134573
0.111017
0.0733822
0.0398449
0.0351569
0.0569182
0.0598367
0.065495
0.0452736
0.0389778
0.0621013
0.0549193
0.0676933
0.0743199
0.0787982
0.0851603
0.0619973
0.0739561
0.499999
0.499999
0.499999
0.499998
0.499998
0.499998
0.499997
0.499998
0.499999
0.499998
0.499998
0.499999
0.499999
0.499999
0.499997
0.499997
0.499998
0.499996
0.499998
0.499998
0.4992
0.499097
0.496941
0.497556
0.499823
0.499658
0.499904
0.499676
0.49884
0.498712
0.499907
0.499698
0.499726
0.499692
0.499921
0.499905
0.451379
0.450172
0.462465
0.459937
0.465023
0.461309
0.475991
0.45776
0.473
0.473682
0.468646
0.476249
0.0264615
0.0236499
0.026331
0.0206771
0.0224634
0.0237392
0.0224792
0.02781
0.0184468
0.0191831
0.0197438
0.0185545
0.023753
0.023738
0.0164647
0.0165014
0.0207471
0.487927
0.483523
0.458754
0.469387
0.472912
0.477368
0.481074
0.490972
0.485397
0.487695
0.486328
0.482632
0.47406
0.467032
0.469557
0.482539
0.478312
0.476782
0.496289
0.496127
0.497591
0.498206
0.496079
0.496541
0.497509
0.497807
0.496797
0.49944
0.499291
0.498867
0.499122
0.499549
0.499442
0.49906
0.49926
0.498879
0.498413
0.498119
0.499874
0.499888
0.499955
0.499947
0.499917
0.499908
0.499945
0.499941
0.499897
0.499909
0.499928
0.499937
0.5
0.5
0.5
0.5
0.5
0.5
0.5
0.5
0.5
0.5
0.5
0.5
0.5
0.5
0.5
0.5
0.5
0.5
0.5
0.5
0.5
0.5
0.5
0.5
0.5
0.5
0.5
0.5
0.00257969
0.00269396
0.00343546
0.00320539
0.0022575
0.00279955
0.00162538
0.00237715
0.00222258
0.00352338
0.00485779
0.00375885
0.0020945
0.002885
0.00367503
0.49999
0.499992
0.499995
0.499993
0.499989
0.499992
0.499994
0.499991
0.499996
0.499996
0.499985
0.499986
0.499991
0.499992
0.499993
0.499989
0.499994
0.000707943
0.000500478
0.000804531
0.0008124
0.00476096
0.0036314
0.00134965
0.00134898
0.00507441
0.00693324
0.000620911
0.00322386
0.00553097
0.00236981
0.00500353
0.00459257
0.00441586
0.00423616
0.00944999
0.0107937
0.0131524
0.00711853
0.083492
0.0770395
0.0588507
0.0673465
0.0718714
0.0650432
0.0837515
0.0912115
0.0825191
0.0898032
0.0907764
0.0840918
0.0610799
0.0708553
0.0653272
0.293742
0.312764
0.298121
0.283461
0.294773
0.263868
0.256615
0.274524
0.275601
0.264748
0.243186
0.283087
0.268803
0.282767
0.247748
0.26158
0.155597
0.15694
0.236179
0.203171
0.145323
0.122978
0.119462
0.153806
0.179633
0.197932
0.172349
0.145719
0.218113
0.193505
0.119917
0.19805
0.181662
0.171221
0.499997
0.499996
0.499995
0.499997
0.499996
0.499995
0.499997
0.499997
0.499994
0.499998
0.499997
0.499997
0.499994
0.499996
0.499997
0.499998
0.499997
0.499995
0.499996
0.499995
0.499999
0.499998
0.5
0.499999
0.499998
0.499998
0.499999
0.499997
0.499999
0.499999
0.5
0.499997
0.5
0.5
0.5
0.5
0.5
0.5
0.5
0.5
0.5
0.5
0.5
0.5
0.5
0.5
0.5
0.0795129
0.0843145
0.0750345
0.0799176
0.0410294
0.0460559
0.0542729
0.0389417
0.0462294
0.0773302
0.0658723
0.0659177
0.0701803
0.0376162
0.0705028
0.0551577
0.36074
0.366622
0.342706
0.344312
0.354687
0.334283
0.326098
0.306691
0.316471
0.326417
0.307202
0.29814
0.294667
0.499996
0.499999
0.499998
0.5
0.499999
0.499995
0.5
0.5
0.5
0.5
0.499998
0.499995
0.5
0.499519
0.499858
0.465699
0.467858
0.486297
0.472614
0.499761
0.499879
0.499902
0.49986
0.49962
0.49867
0.499858
0.499926
0.499895
0.499837
0.493094
0.499916
0.499934
0.499896
0.5
0.5
0.5
0.5
0.5
0.5
0.5
0.5
0.5
0.5
0.5
0.5
0.5
0.5
0.00918876
0.00769967
0.00981196
0.0119885
0.00654314
0.00730096
0.0151549
0.0134339
0.0107738
0.00833853
0.0136521
0.011204
0.0110153
0.00634479
0.00785229
0.00769612
0.00879473
0.00942263
0.0120826
0.0100111
0.0122343
0.0127595
0.0134672
0.0115628
0.0110573
0.00939316
0.00929483
0.0113615
0.0133593
0.0139754
0.0121387
0.00876897
0.00833803
0.00581147
0.00453516
0.00520415
0.00564123
0.0108856
0.00926256
0.00974859
0.00838323
0.0143077
0.012192
0.124183
0.119155
0.130372
0.121713
0.140221
0.148103
0.134209
0.139943
0.112961
0.125069
0.119285
0.123654
0.131336
0.120019
0.35453
0.36545
0.349269
0.357966
0.343999
0.352229
0.379271
0.35742
0.370802
0.337334
0.340901
0.5
0.5
0.5
0.5
0.5
0.5
0.5
0.5
0.5
0.5
0.5
0.423856
0.408426
0.453541
0.459984
0.414675
0.399606
0.395807
0.47341
0.442031
0.409269
0.438022
0.390764
0.479193
0.477781
0.474135
0.5
0.5
0.5
0.5
0.5
0.5
0.5
0.5
0.5
0.5
0.5
0.5
0.5
0.5
0.5
0.5
0.5
0.5
0.5
0.5
0.5
0.491609
0.491263
0.493373
0.492883
0.49348
0.495154
0.499766
0.499569
0.499663
0.499855
0.499707
0.499595
0.499707
0.498108
0.499804
0.498948
0.498146
0.5
0.5
0.5
0.5
0.5
0.5
0.5
0.5
0.5
0.5
0.5
0.5
0.5
0.5
0.5
0.5
0.5
0.5
0.5
0.5
0.5
0.5
0.5
0.5
0.5
0.5
0.5
0.5
0.5
0.5
0.5
0.5
0.5
0.5
0.475286
0.480979
0.475021
0.478683
0.469995
0.46558
0.485256
0.463761
0.467279
0.481853
0.484818
0.464393
0.462825
0.482213
0.497325
0.49766
0.497227
0.497654
0.498138
0.496561
0.497636
0.496108
0.496322
0.496857
0.497135
0.000222018
0.000263464
0.00023226
0.000382164
0.000323165
0.000187915
0.000168834
0.000236219
0.00018882
0.000206507
0.000185433
0.000236024
0.000283673
0.000304991
0.000355033
0.237302
0.250259
0.241943
0.242775
0.217528
0.229747
0.257111
0.227327
0.270521
0.27918
0.285656
0.257929
0.271106
0.250088
0.243448
0.231988
0.261218
0.247807
0.497315
0.496688
0.497145
0.49683
0.497845
0.496203
0.494569
0.494531
0.495633
0.496086
0.496411
0.497172
0.496932
0.496011
0.4954
0.495164
0.494215
0.494524
0.494991
0.496598
0.494631
0.5
0.5
0.5
0.5
0.5
0.5
0.5
0.5
0.5
0.5
0.5
0.5
0.5
0.5
0.5
0.499993
0.499994
0.499991
0.499992
0.499996
0.499995
0.499994
0.499992
0.499996
0.499995
0.5
0.5
0.5
0.5
0.5
0.5
0.5
0.5
0.5
0.5
0.5
0.5
0.5
0.5
0.5
0.0194399
0.00980711
0.0485644
0.0398842
0.00878226
0.00769269
0.014049
0.0354919
0.0272298
0.0265967
0.029335
0.0248663
0.00459266
0.00623937
0.0168365
0.00955978
0.0199782
0.000391417
0.000427801
0.000738129
0.000761131
0.000270266
0.000180016
0.000359045
0.000247489
0.000669171
0.000414699
0.000442017
0.000203954
0.000482283
0.000321922
0.000241344
0.5
0.5
0.5
0.5
0.5
0.5
0.5
0.5
0.5
0.5
0.5
0.5
0.5
0.5
0.5
0.5
0.5
0.5
0.5
0.5
0.5
0.5
0.5
0.5
0.5
0.5
0.5
0.5
0.5
0.5
0.5
0.5
0.5
0.5
0.5
0.5
0.5
0.5
0.5
0.5
0.5
0.5
0.5
0.5
0.489281
0.475228
0.470716
0.468823
0.472868
0.481525
0.492628
0.471466
0.481083
0.463797
0.468221
0.46431
0.466914
0.462049
0.464297
0.4414
0.411091
0.407914
0.385068
0.385856
0.427729
0.433502
0.408732
0.464166
0.41843
0.423503
0.461714
0.5
0.5
0.5
0.5
0.5
0.5
0.5
0.5
0.5
0.5
0.5
0.5
0.5
0.5
0.5
0.5
0.5
0.5
0.5
0.5
0.5
0.5
0.5
0.5
0.5
0.5
0.5
0.5
0.5
0.5
0.5
0.0227577
0.0287086
0.0322131
0.0251319
0.0230707
0.0204094
0.0195704
0.0283034
0.0173266
0.0198493
0.5
0.5
0.5
0.5
0.5
0.5
0.5
0.5
0.5
0.5
0.5
0.5
0.5
0.5
0.5
0.5
0.5
0.5
0.5
0.5
0.5
0.5
0.5
0.5
0.5
0.5
0.5
0.5
0.5
0.5
0.5
0.5
0.5
0.5
0.5
0.5
0.5
0.5
0.5
0.5
0.5
0.5
0.5
0.5
0.5
0.5
0.5
0.5
0.5
0.5
0.5
0.5
0.5
0.5
0.5
0.5
0.5
0.5
0.5
0.5
0.5
0.5
0.5
0.5
0.5
0.5
0.5
0.5
0.5
0.5
0.5
0.5
0.5
0.5
0.5
0.5
0.5
0.5