/*--------------------------------*- C++ -*----------------------------------*\
  =========                 |
  \\      /  F ield         | OpenFOAM: The Open Source CFD Toolbox
   \\    /   O peration     | Website:  https://openfoam.org
    \\  /    A nd           | Version:  10
     \\/     M anipulation  |
\*---------------------------------------------------------------------------*/
FoamFile
{
    format      ascii;
    class       volScalarField;
    location    "6";
    object      eff_dif;
}
// * * * * * * * * * * * * * * * * * * * * * * * * * * * * * * * * * * * * * //

dimensions      [0 2 -1 0 0 0 0];

internalField   nonuniform List<scalar> 
75457
(
-0.0493845
-0.0446465
-0.0412744
-0.0374017
-0.0319771
-0.0346485
-0.0446942
-0.0452352
-0.0313669
-0.0250505
-0.028911
-0.0324714
-0.0322578
-0.0291107
-0.00522216
-0.00594322
-0.00606036
-0.00586916
-0.00649728
-0.00600659
-0.00529114
-0.00624392
-0.00612203
-0.00662068
-0.00642004
-0.00698995
-0.00632488
-0.00102333
-0.00103293
-0.000603018
-0.000497382
-0.00048943
-0.000562507
-0.000700274
-0.00037451
-0.00116727
-0.00099933
-0.00112124
-0.00132674
-0.000488571
-0.000852344
-0.0004346
-0.000856304
-0.0131881
-0.0131167
-0.012098
-0.0122091
-0.0128538
-0.00646176
-0.00723653
-0.00765418
-0.0069455
-0.00690817
-0.00712505
-0.00765481
-0.00774992
-0.00738838
-0.00769789
-0.00696304
-0.00724829
-0.00704754
-0.00684928
0.0260886
0.026386
0.0261195
0.0264862
0.0267631
0.0267745
0.0263927
0.0264351
0.0267516
0.026525
0.0261931
0.026517
0.0264994
0.0261378
0.0263846
-0.00785304
-0.00905414
-0.00740499
-0.00849524
-0.0109097
-0.00553691
-0.00568958
-0.00783067
-0.00875788
-0.00816774
-0.00803485
-0.00562125
-0.00644867
-0.00533763
-0.00553973
-0.00642639
-0.00567004
-0.0100496
-0.0102613
-0.0102774
-0.0106313
-0.0102116
-0.010044
-0.0112369
-0.0104648
0.0275269
0.0274177
0.0276759
0.0276931
0.0275614
0.0274131
0.027332
0.0277805
0.0277827
0.0273998
0.0274097
0.0183992
0.0190497
0.021465
0.021047
0.0184583
0.020008
0.0200423
0.0195251
0.0198743
0.0215282
0.0213156
0.0218504
0.0223807
0.0211557
0.0206052
0.0194289
0.0218051
0.0208222
0.0101266
0.0101016
0.00954678
0.0104059
0.0100193
0.0114866
0.0111835
0.0110697
0.0110735
0.00450284
0.00405895
0.00460504
0.0041629
0.00362299
0.00410661
0.00413444
0.00321923
-0.00996353
-0.00999833
-0.00942014
-0.00961009
-0.0099743
-0.00964553
-0.00938028
-0.00891998
-0.00742247
-0.00748335
-0.00893636
-0.00866437
-0.00823981
-0.00890067
-0.00781252
0.0126011
0.0141602
0.0143943
0.0137394
0.0141515
0.0105141
0.011882
0.013408
0.012432
0.0133647
0.0107174
0.00944501
0.0100196
-0.012277
-0.0127289
-0.0125919
-0.0127794
-0.0125472
-0.0127032
-0.0120722
-0.0127784
-0.0126123
-0.0128211
-0.012797
-0.0126805
-0.0125933
-0.0126978
-0.0112516
-0.0097319
-0.012175
-0.00974078
-0.00989298
-0.0115963
0.00521425
0.00590974
0.00449174
0.00546951
0.00363969
0.00438327
0.00692232
0.00654194
0.0057412
0.00297254
0.0028969
-0.0109614
-0.0108032
-0.0112095
-0.0111589
-0.0111264
-0.0110468
-0.0108838
-0.0107805
-0.0103567
-0.01119
-0.0109648
-0.0107255
-0.0110794
-0.0106812
0.00127241
0.00041942
0.000764869
-0.000805603
-0.000306759
0.000301161
4.54501e-05
0.00132021
0.00090216
0.000131596
-0.000507736
-0.00103154
0.0010337
-0.000523621
-0.0104666
-0.0105546
-0.0101271
-0.00999467
-0.0103461
-0.0102826
-0.0104955
-0.0104254
-0.0107532
-0.0100196
-0.0103462
-0.0097347
-0.0104381
-0.0106754
-0.0103284
-0.0101691
-0.0104057
-0.013309
-0.0130031
-0.0130373
-0.0129334
-0.0142995
-0.0127489
-0.0128929
-0.0121911
-0.0128379
-0.0134801
-0.0123228
-0.0132133
-0.012505
-0.0124684
-0.0125528
-0.012624
-0.0120346
-0.0119464
-0.0123003
-0.0120901
-0.011748
-0.0121558
-0.0122298
-0.0119922
-0.0119857
-0.00790787
-0.00775907
-0.00795894
-0.00760261
-0.00761947
-0.00747533
-0.00731676
-0.00729707
-0.00729198
-0.00760642
-0.00788727
-0.00775026
-0.00721231
-0.00752299
-0.0075324
-0.000266294
-0.00025812
-0.000161618
-0.000295156
-0.000118155
-0.000169768
-0.000476995
-0.000379769
-0.000175093
0.00014539
0.00131127
0.000228489
0.000611348
0.000807972
0.00211127
0.000576644
0.000295057
0.00110228
0.000119246
0.000364552
-0.000258475
0.000231829
-0.00377625
-0.0044414
-0.00278344
-0.00338059
-0.0042868
-0.00490456
-0.00495295
-0.0032789
-0.0043838
-0.00491802
-0.004792
-0.00967104
-0.00980564
-0.00997852
-0.0099749
-0.00988697
-0.00961276
-0.00965734
-0.0100776
-0.0102934
-0.0100581
-0.0103008
-0.00945623
-0.00973643
-0.00986791
-0.0100375
-0.00978144
-0.00993424
-0.0134795
-0.0120833
-0.0116693
-0.0137407
-0.0181051
-0.0177801
-0.0173111
-0.0152389
-0.0154952
-0.0149804
-0.0170901
-0.00404988
-0.00480182
-0.00561813
-0.00547102
-0.00495055
-0.00513123
-0.00441023
-0.00531363
-0.00561163
-0.00475279
-0.00490184
-0.000216227
-0.000187469
-0.000357085
-0.000440669
-0.000173514
-0.000143043
-0.000436457
-0.000181575
-0.000461221
-0.000580642
-0.000523811
-0.000232334
-0.000447214
-0.000869765
-0.000746966
-0.00599416
-0.00465491
-0.00738012
-0.00622561
-0.00585607
-0.00955923
-0.0100785
-0.00954342
-0.00998209
-0.0100676
-0.00954143
-0.0105551
0.0451123
0.0498648
0.0384952
0.0411749
0.0439135
0.0458549
0.0456809
0.0484819
0.0408269
0.0452814
0.0437196
0.0446513
0.040501
0.0449849
0.0395122
0.0407901
0.0427217
0.0378743
0.0298005
0.0293442
0.0299786
0.0306416
0.0315671
0.0324579
0.030071
0.0307465
0.0330574
0.0363972
0.0332033
0.033545
0.0353344
0.0208606
0.018106
0.0157721
0.0174438
0.0217317
0.0184438
0.0170529
0.0185426
0.0181556
0.01625
0.0234441
0.023465
0.0169086
0.0184479
0.0157899
0.0218223
0.0239789
0.0241464
0.0202719
0.0202129
0.0208077
0.0220606
-0.0122936
-0.0128481
-0.0130542
-0.0130356
-0.0131514
-0.0123918
-0.0125172
-0.0126931
-0.0128513
-0.0123883
-0.0129043
-0.0124465
-0.0126149
-0.0125251
-0.0126734
-0.0126166
-0.0409513
-0.0456368
-0.0281547
-0.0341461
-0.0261999
-0.0343117
-0.0323293
-0.0298971
-0.0256434
-0.0317898
-0.051133
-0.045199
-0.0304035
-0.0408538
-0.027264
-0.0280314
-0.00108202
-0.00122789
-0.00106542
-0.000259972
9.46227e-05
0.000693652
-0.00142543
-0.00174305
-0.000122698
-0.000151266
0.000699146
0.000355734
0.000101044
3.27311e-05
-0.000142396
-0.000771821
-0.00148345
-0.000704445
0.0290291
0.0333911
0.0320099
0.0283267
0.0296608
0.0324843
0.0359034
0.0349205
0.0301445
0.03602
0.0377887
0.0359535
0.0321286
0.028891
0.0296821
0.0304995
0.0222403
0.021625
0.0221356
0.0219136
0.0211248
0.022827
0.0234167
0.0228266
0.0221846
0.0231813
0.0226153
0.0218051
0.0226459
0.0210853
0.0217502
0.0232578
0.0237401
0.00879041
0.00860832
0.00833414
0.00866076
0.00865444
0.00874799
0.00889127
0.00889037
0.00885276
0.00873288
0.00845583
0.00853847
0.00892573
0.00863024
0.00883091
0.00807003
0.00812621
-0.00542574
-0.00649448
-0.0082131
-0.0069361
-0.00625151
-0.00610297
-0.00565287
-0.00558601
-0.00700892
-0.00676264
-0.00792188
-0.00806457
-0.00659517
-0.00626948
-0.00822044
-0.00713533
-0.00663184
-0.00754761
-0.00503282
-0.00535736
-0.00488471
-0.00503541
-0.00450371
-0.00453018
-0.00457804
-0.00461399
-0.00404578
-0.00435487
-0.00450995
-0.0039668
-0.00383047
-0.00424851
-0.00807741
-0.00728385
-0.00834768
-0.0092029
-0.00931676
-0.00879281
-0.00838915
-0.00810869
-0.00805142
-0.00956422
-0.00928983
-0.0091845
-0.00840934
-0.00787179
-0.00831381
-0.00898673
-0.00909726
-0.00934271
0.0163264
0.0120794
0.0129188
0.0198773
0.0161718
0.0102561
0.0130998
0.0135843
0.00997897
0.0184045
0.0133887
0.0105249
-0.0114829
-0.0112464
-0.0107458
-0.0107486
-0.0111345
-0.0110765
-0.00939668
-0.0100246
-0.0110307
-0.0108923
-0.0109437
-0.0100108
-0.0101623
-0.0108637
-0.0108054
-0.0106644
-0.00571447
-0.00619814
-0.00520169
-0.00557405
-0.00652348
-0.00666275
-0.0061972
-0.00501606
-0.00492152
-0.00510218
-0.0050812
-0.00624951
-0.00650402
-0.00525321
-0.00486991
-0.00592368
0.00148066
0.00075494
9.0221e-05
0.00323635
0.00414509
0.0017173
0.00239096
-0.000751005
0.000836449
0.00149769
0.00309738
0.00200869
0.00302654
0.00380755
0.00353922
0.00050645
0.000610574
0.00186047
2.84034e-05
-0.00318028
-0.00236446
-0.0029221
-0.00483696
-0.00388011
-0.00283859
-0.00484644
-0.00448796
-0.00316743
-0.00357714
-0.00350763
-0.00473432
-0.00344357
-0.00317628
-0.000773781
-0.000701078
-0.00151267
-0.00158431
-0.00127864
-0.00147014
-0.00141422
-0.00123757
-0.00156297
-0.0012651
-0.00147884
-0.00128733
-0.00177677
-0.00132157
-0.00137991
-0.00127495
-0.00115857
-0.00156168
-0.0067121
-0.00727644
-0.00641193
-0.00514052
-0.00564125
-0.00916658
-0.00670896
-0.0064096
-0.00645375
-0.00748246
-0.00889852
-0.00884274
-0.00924166
-0.00963935
-0.00929956
-0.00972837
-0.0106965
-0.00943352
-0.0107992
-0.00758951
-0.00773374
-0.0109213
-0.0121368
-0.0113134
-0.0106503
-0.010092
-0.0117541
-0.00951242
-0.0102885
-0.0104633
-0.0109567
-0.00911522
-0.0129674
-0.0130297
-0.0127026
-0.0129214
-0.0126296
-0.0128703
-0.0129092
-0.0127101
-0.0124965
-0.012586
-0.0128382
-0.0125983
-0.0127424
-0.0125754
-0.0127115
-0.0126556
-0.0126445
-0.00857841
-0.0087786
-0.0102399
-0.010709
-0.00915138
-0.00953233
-0.0104479
-0.0106742
-0.00955976
-0.0103727
-0.00961749
-0.00396667
-0.00404997
-0.00305799
-0.00226139
-0.00273786
-0.00213799
-0.00253575
-0.00141636
-0.00260506
-0.00235458
-0.00276166
-0.00241641
-0.00189801
-0.00361695
-0.00328022
-0.00326039
-0.00368887
-0.00350772
-0.00285113
-0.00340216
-0.00311423
-0.00369716
-0.00365892
-0.00297012
-0.00296055
-0.00335272
-0.00256538
-0.00327843
-0.00297182
-0.0026101
-0.00305136
-0.00261155
-0.00304193
-0.00323062
-0.00263576
-0.008642
-0.00876123
-0.0087643
-0.00863522
-0.00813127
-0.00752565
-0.00864686
-0.00720745
-0.0080501
-0.00666666
-0.00718619
-0.00771308
-0.00831183
-0.00732363
-0.00747467
-0.00884799
-0.00779209
-0.00684247
-0.0069934
-0.00667824
-0.00849795
-0.00864216
-0.00899221
-0.00894972
-0.00795864
-0.0081329
-0.00892231
-0.00888175
-0.00862917
-0.00735508
-0.00776096
-0.00771502
-0.00736758
-0.00803755
-0.00792787
-0.00828374
-0.00724517
-0.00744918
-0.00816907
-0.00827405
-0.00736483
-0.00755458
-0.00703147
-0.00832019
-0.00740342
-0.00815565
-0.00757089
-0.0088356
-0.00679086
-0.00668441
-0.0065311
-0.00720606
-0.00801901
-0.00775317
-0.00840065
-0.00733528
-0.00700436
-0.00752713
-0.00743576
-0.0090211
-0.00861069
-0.00993657
-0.00921595
-0.0100127
-0.010889
-0.0104143
-0.0101537
-0.00964666
-0.00972086
-0.0106343
-0.0105998
-0.011237
-0.0101608
0.0171358
0.0178316
0.0187814
0.0175423
0.0183844
0.0172867
0.0183483
0.0170807
0.0175981
0.0186558
-0.012182
-0.0120091
-0.0114298
-0.0115064
-0.0123714
-0.0121871
-0.011667
-0.0118256
-0.0122531
-0.011392
-0.0119108
-0.0115885
-0.0116554
-0.0122094
-0.0116763
-0.0119956
-0.0121381
-0.0134363
-0.0127728
-0.0139121
-0.0135815
-0.0135646
-0.0141963
-0.0128131
-0.0134802
-0.0127938
-0.0126714
-0.0134024
-0.0138083
-0.0125615
-0.0135727
-0.0134085
-0.013349
-0.013163
-0.0139834
-0.0132984
-0.0133121
0.00825124
0.00866617
0.00941273
0.00878744
0.00843076
0.00966362
0.00612498
0.00768024
0.00791014
0.00763971
0.00693902
0.00908228
0.00849959
0.00909047
0.00819939
0.00776823
-0.0165145
-0.0173798
-0.0159032
-0.0155527
-0.0160122
-0.013205
-0.0151741
-0.0160661
-0.0157694
-0.015947
-0.0125354
-0.013824
-0.015673
-0.013973
-0.0148534
-0.0130609
-0.0126696
-0.0126461
-0.0136533
-0.0137803
-0.0142694
-0.0127035
-0.0123046
-0.0121677
-0.0131171
0.00738444
0.00634564
0.00601341
0.00612387
0.00606494
0.00466494
0.00434546
0.00378159
0.00388196
0.00439845
0.00446956
0.0035798
0.00515222
0.0043598
0.00601392
0.00613343
0.00430042
0.00534108
0.00493181
-0.0117827
-0.0117599
-0.0126955
-0.0122115
-0.0135227
-0.0119872
-0.0115083
-0.0124359
-0.012379
-0.0118221
-0.0117009
-0.012628
-0.0128028
-0.013323
-0.0124812
-0.0121151
-0.0118972
-0.0129073
-0.0124542
-0.00651226
-0.00766382
-0.00711232
-0.00667297
-0.00705488
-0.00775612
-0.00698605
-0.00634503
-0.0069809
-0.0079852
-0.00814332
-0.00753078
-0.00778937
-0.00743282
-0.00815251
-0.00833725
0.0158084
0.0163351
0.0155233
0.0153843
0.0164229
0.017394
0.0174913
0.0164029
0.0162765
0.0171386
0.0173531
0.0163742
0.0174886
0.017962
0.0187273
0.0181056
-0.0139427
-0.0164293
-0.0127325
-0.0134779
-0.0155945
-0.0178339
-0.00969459
-0.0106758
-0.0129463
-0.0149078
-0.0124066
-0.0133007
-0.0150589
-0.0178324
-0.0160827
-0.0113344
-0.0150733
-0.0130286
-0.0150652
-0.0177726
0.0540751
0.0480767
0.0438489
0.0435215
0.052558
0.0538185
0.0473127
0.0521268
0.0463218
0.0483358
0.0459122
0.0464366
0.0432102
0.0430734
0.048801
0.0171847
0.0157992
0.0204986
0.0220319
0.0198588
0.0168953
0.0223488
0.0189056
0.0213494
0.0246368
0.0235094
0.0247527
0.0265682
0.024258
-0.0168988
-0.0176325
-0.0171833
-0.0179139
-0.0160776
-0.0163642
-0.0147996
-0.0137014
-0.0159469
-0.0158774
-0.0141563
-0.0137021
-0.016335
-0.0147014
-0.0143921
-0.0149771
-0.00722267
-0.00683536
-0.00696072
-0.00707474
-0.00673648
-0.0071959
-0.00691946
-0.00726811
-0.00745871
-0.00657115
-0.00655878
-0.00655361
-0.00730382
-0.00722669
-0.00655036
-0.00697629
-0.00686898
-0.00732917
-0.00705411
-0.0133333
-0.0132717
-0.0129568
-0.0138414
-0.0138834
-0.0138572
-0.0130115
-0.0139187
-0.013737
-0.0122752
-0.012864
-0.0128209
-0.0130936
-0.0128291
-0.0141157
-0.0138671
-0.0123682
-0.0128333
-0.0126896
-0.0126789
-0.0123592
-0.0124241
-0.012933
-0.0123402
-0.0124346
0.0256307
0.0247432
0.0247797
0.0252936
0.025485
0.0250261
0.0247909
0.0248544
0.0255779
0.0253419
0.0254237
0.0251419
0.0253095
0.0250619
0.0254134
0.0254696
0.0254417
0.0252117
0.024845
0.0255483
-0.00956963
-0.0103618
-0.00951
-0.0100427
-0.00953473
-0.00920335
-0.00936207
-0.0101227
-0.00915088
-0.00947135
-0.00968386
-0.00985065
-0.00596617
-0.00598491
-0.00541967
-0.00518949
-0.00496334
-0.00600479
-0.00601629
-0.00620742
-0.00580717
-0.00521221
-0.00514708
-0.0054534
-0.00567493
-0.0051069
-0.00534331
-0.00541244
-0.00553209
-0.00538997
-0.00351322
-0.00333063
-0.00363368
-0.00330409
-0.00345393
-0.00389467
-0.00396833
-0.00415731
-0.00419583
-0.0033821
-0.00385803
-0.00351209
-0.00423783
-0.00411244
-0.00367455
-0.00345974
-0.00426146
-0.00391778
-0.00341205
-0.0025575
-0.00269444
-0.00288342
-0.00200236
-0.00246089
-0.0022261
-0.00202023
-0.00297891
-0.00259418
-0.00306761
-0.00287325
-0.00209261
-0.00210416
-0.00236984
-0.00312592
-0.00306106
-0.00748604
-0.00708079
-0.00743146
-0.00749776
-0.00696811
-0.00680163
-0.00694175
-0.00784478
-0.00774734
-0.012556
-0.0123223
-0.0123432
-0.0125711
-0.0126729
-0.0126801
-0.0124769
-0.0127697
-0.0124784
-0.0124125
-0.0126747
-0.0125028
-0.00547382
-0.00518545
-0.00546385
-0.00542067
-0.00546383
-0.00561727
-0.00561481
-0.00568364
-0.00587958
-0.00562222
-0.0061962
-0.00601066
-0.00601791
-0.00614643
-0.00598163
-0.00606325
0.0256096
0.0257588
0.0255827
0.0252919
0.0248855
0.0248618
0.0244758
0.024425
0.0247379
0.0253141
-0.00971856
-0.00948985
-0.00976542
-0.00952706
-0.00983227
-0.00971346
-0.00999852
-0.00995985
-0.0100569
-0.0100983
-0.00984264
-0.00965732
-0.0098957
-0.010261
-0.0101596
-0.00993433
-0.00986882
-0.00986164
-0.00691487
-0.00734685
-0.00684741
-0.00700784
-0.0069623
-0.00690522
-0.00718569
-0.0068877
-0.00711916
-0.00764932
-0.00734379
-0.00745979
-0.00719124
-0.00741507
-0.00684723
-0.00707181
-0.00729546
-0.007043
0.00538381
0.00477561
0.00422808
0.00515859
0.00327745
0.00278927
0.00572729
0.00522851
0.00398682
0.00538457
0.00440773
0.0035462
0.00424924
0.0042701
0.0260784
0.0259825
0.0258382
0.0256725
0.0261335
0.0256966
0.0255121
0.0255483
0.0258695
0.0256739
0.0258795
0.0260065
0.0255447
0.0255181
0.0254064
0.0254472
0.0258412
0.025632
0.025794
0.0255473
0.0398849
0.0383706
0.0316458
0.034838
0.0242117
0.0284916
0.014169
0.0296489
0.0298912
0.0271927
0.0329053
0.0229776
0.0344416
0.0395007
0.0355376
0.0430682
0.0247356
0.0360386
0.031462
-0.0162563
-0.0175111
-0.0128807
-0.0120819
-0.0173214
-0.0203941
-0.0202775
-0.0231461
-0.0128886
-0.0128683
-0.0260552
-0.0225401
-0.0157914
-0.0195126
-0.0222648
-0.0162136
-0.0168775
-0.0236574
-0.0194848
-0.0203356
-0.00101956
-0.00167831
-0.00134524
-0.00170727
-0.00193053
-0.00133976
-0.00257316
-0.00161753
-0.00195549
-0.00192727
-0.00154547
-0.0017206
-0.0021718
-0.00142746
-0.00246102
-0.00243901
-0.00234487
-0.00224679
-0.00161093
-0.0143545
-0.0154505
-0.0192081
-0.0198168
-0.0167096
-0.0159724
-0.014755
-0.0162274
-0.0187424
-0.0147298
-0.0162584
-0.0158676
-0.0164163
-0.0176425
-0.018045
-0.0172756
0.0283575
0.0283088
0.0281747
0.0282513
0.0285179
0.0285335
0.0284131
0.0284384
0.0282507
0.0281204
0.0286253
0.028402
0.0285689
0.028567
0.0282017
0.0281182
0.0282801
0.0284449
0.0285761
0.0281822
-0.00303654
-0.00316707
-0.00261265
-0.00220193
-0.0050386
-0.00511243
-0.0055042
-0.00633718
-0.00433951
-0.00299669
-0.002653
-0.005036
-0.00535975
-0.00587321
-0.00658361
-0.00648645
-0.00425122
-0.00599344
-0.00576573
-0.00473261
0.0282641
0.0281136
0.0281952
0.0282375
0.0282269
0.0282661
0.0281923
0.0283127
0.0283823
0.0284032
0.0284755
0.0281656
0.028326
0.0283234
0.0284199
0.0284055
0.0282781
-0.00649145
-0.00635323
-0.00658167
-0.00684767
-0.00671922
-0.00636456
-0.00611914
-0.00659128
-0.00671278
-0.00689227
-0.00620922
-0.00577497
0.0261264
0.0259502
0.02651
0.0265188
0.0262623
0.026218
0.0258484
0.0260611
0.0263167
0.026468
0.0265123
0.0261419
0.0259417
0.0260624
0.0258762
0.0260643
0.025856
0.0261348
0.0262012
0.0258573
0.0261072
0.0193685
0.0189261
0.0190163
0.0194414
0.019509
0.0186686
0.0190733
0.0207347
0.0209202
0.0207162
0.01999
0.0196457
0.01925
0.0191627
0.0192325
0.0198975
0.0198215
0.019785
0.00594588
0.00621075
0.00627164
0.00585541
0.00612747
0.00681565
0.00644802
0.00646958
0.00624579
0.00738045
0.0071885
0.00744121
0.00727585
0.00636251
0.00609157
0.0468525
0.0417915
0.0360077
0.0374473
0.0437809
0.0417528
0.0530878
0.0386062
0.0455011
0.0404242
0.0527341
0.0524645
0.0482086
0.0415786
-0.00556531
-0.00536989
-0.00560786
-0.00595655
-0.00599377
-0.00604504
-0.00564639
-0.00575461
-0.00572429
-0.0056181
-0.00611566
-0.00612526
-0.00585958
-0.00529513
-0.00542715
-0.00571387
0.0224455
0.0204154
0.0220206
0.0202475
0.019928
0.0203027
0.0206343
0.0206912
0.0215206
0.0219285
0.0243403
0.0238375
0.0228892
0.0251344
0.0257186
0.0231719
0.0242061
0.027387
0.0273335
0.0269184
0.0270275
0.0271217
0.0271922
0.0274098
0.0274542
0.0268752
0.0270014
0.0273612
0.0273786
0.0273397
0.0272025
0.027163
0.02733
0.0271229
-0.0221758
-0.0196738
-0.0194173
-0.0239689
-0.0191909
-0.0246109
-0.0314797
-0.0188346
-0.0222719
-0.0222497
-0.0212991
-0.023358
-0.0253541
-0.0200425
-0.0179866
-0.0176195
-0.0137458
-0.0154734
0.0139485
0.0136227
0.0152607
0.0149431
0.0141868
0.0129123
0.0132861
0.0148593
0.0153877
0.0149825
0.0147095
0.0150397
0.0133025
0.0130564
0.0124326
0.0142917
0.0131195
0.0137266
0.0127193
0.0142405
0.0135379
0.0133048
-0.00700781
-0.00734344
-0.00716021
-0.00720152
-0.00570055
-0.00584806
-0.00427306
-0.00437139
-0.00598651
-0.00651273
-0.00667722
-0.00571843
-0.0043691
-0.00461891
-0.00434948
-0.00448511
-0.00514736
-0.00573161
-0.00489608
-0.00504161
-0.00555431
-0.00530251
-0.00505495
-0.00545804
-0.00575983
-0.00559173
-0.00564423
-0.00480771
-0.00483368
-0.00470808
-0.00492324
-0.00489164
-0.00569597
-0.00570272
-0.00560658
-0.00524932
-0.00483023
-0.00532625
-0.00647713
-0.00649575
-0.00656378
-0.00668008
-0.00691321
-0.00703343
-0.00649004
-0.00694045
-0.00631148
-0.00661187
-0.00623817
-0.00688964
-0.00594197
-0.00625052
-0.00603022
-0.00695841
-0.00643858
-0.00609911
-0.00689669
-0.00614795
-0.00582094
-0.00523663
-0.00763073
-0.00476479
-0.00220486
-0.00834016
-0.00813691
0.000100217
-0.00176261
0.00194306
-0.00367521
0.00054937
-0.00399017
-0.00265698
-0.00651474
-0.00631405
-0.00302758
-0.00201197
0.00272983
-0.000915506
0.00243111
0.00251233
0.00102399
0.000381135
0.000821521
0.00136704
0.00292865
0.00279453
0.00189658
0.00118381
0.000411926
0.000749569
0.000831779
0.000549121
0.00154308
0.00138612
0.00249143
0.00129522
0.000571297
0.00118684
-0.0105331
-0.0100914
-0.0102748
-0.0103523
-0.0104863
-0.010512
-0.0107512
-0.0110416
-0.0105289
-0.0111203
-0.0106362
-0.0104049
-0.0104662
-0.0103849
-0.0104718
-0.0104039
-0.0104602
-0.00741226
-0.00754686
-0.00878988
-0.00837361
-0.00816288
-0.00840456
-0.00857239
-0.00830744
-0.00777137
-0.00846502
-0.00796197
-0.00848125
-0.00816696
-0.00824798
-0.00395071
-0.00445434
-0.00456385
-0.0049566
-0.00480156
-0.00503357
-0.00394978
-0.00510056
-0.00535798
-0.00573678
-0.00578324
-0.0040969
-0.00474877
-0.005354
-0.00535946
-0.00424409
-0.00493928
-4.1773e-05
-0.000150766
-0.000242398
-9.37107e-06
-0.00013377
-0.000193934
-0.00017143
-2.82893e-05
-0.000176757
-0.000200515
-0.00037285
-0.000561275
-0.000730822
-0.000497719
-0.000178894
-0.000327848
-0.000510166
-0.000537687
-0.000474233
-0.000624204
-0.000303898
-0.000178147
-0.000663963
-5.50337e-05
-0.000305973
-0.000283243
-0.000445657
-0.000578286
-0.000287795
-0.000474832
-0.000400018
-7.68649e-05
-0.000134279
-0.000372512
-0.00053666
-0.000238074
-0.000272437
-0.000559193
-0.000151486
-0.000301687
-0.0159145
-0.0177294
-0.020648
-0.0202378
-0.0197558
-0.0199944
-0.0168402
-0.0184258
-0.0192336
-0.0155209
-0.0173849
-0.0182134
-0.0200015
-0.0186763
-0.0194521
-0.0188422
-0.0179237
-0.00247076
-0.00245856
-0.00285182
-0.00161184
-0.00223346
-0.0030743
-0.00334206
-0.00153985
-0.00182216
-0.00275871
-0.0118987
-0.0118566
-0.0124216
-0.012744
-0.0116666
-0.0115618
-0.0120585
-0.0126533
-0.0125736
-0.0122477
-0.0120321
-0.0116682
-0.0117733
-0.0114656
-0.0114799
-0.0118676
-0.0117012
-0.0117713
-0.0099748
-0.00994509
-0.0100556
-0.00969918
-0.0101609
-0.00981058
-0.00987109
-0.00974014
-0.00945686
-0.00953138
-0.0101635
-0.0102825
-0.00994693
-0.000629898
-0.00040652
-0.000807764
-0.000524527
-0.000812177
-0.00110859
-0.000870966
-0.000302833
-0.000183363
-0.000615069
-0.00099441
-0.000921349
-0.000308802
-0.000326322
-0.0112654
-0.0111989
-0.0115667
-0.0114132
-0.0110912
-0.0112118
-0.0115331
-0.0112667
-0.0112146
-0.0112982
-0.0112377
-0.0116041
-0.011281
-0.011003
-0.0118318
-0.025809
-0.0237667
-0.022617
-0.0239369
-0.0218216
-0.0213638
-0.0264919
-0.0266974
-0.0267669
-0.0278065
-0.0281462
-0.0279518
-0.0230383
-0.0225318
-0.0240892
-0.0240693
-0.0239066
-0.0270447
0.0274162
0.0274114
0.0276562
0.0270221
0.0271323
0.0270908
0.0271984
0.0270242
0.0273327
0.0273133
-0.0107778
-0.0108352
-0.0108678
-0.0110719
-0.0107483
-0.011042
-0.0107054
-0.010777
-0.0105878
-0.0106691
-0.010722
-0.0110095
-0.0110813
-0.0108508
-0.0110964
-0.0106849
-0.0108477
-0.0108644
-0.0106917
-0.0108545
-0.0109186
-0.0108421
-0.00438202
-0.00445893
-0.00436014
-0.0043708
-0.00413944
-0.00348828
-0.00425302
-0.00440654
-0.00365458
-0.00375521
-0.00336813
-0.00316126
-0.00370253
-0.00368796
-0.00335364
-0.00307514
-0.00333092
-0.00403702
0.0290066
0.0299862
0.0312181
0.0299119
0.0285491
0.030992
0.0291411
0.0300861
0.0264204
0.0283481
0.0298976
0.027095
0.0273973
0.026136
0.0248863
0.0280086
0.0258499
0.0247055
0.0257697
0.0301042
0.0279337
0.0269759
0.024346
0.0295531
0.0306004
0.0319286
0.0314458
0.0357028
0.0347569
0.0322257
0.0348321
0.0281672
0.0272298
0.0357331
0.0366915
0.0334278
0.0359678
0.0280796
0.0281976
0.0282445
0.0280507
0.0281704
0.028055
0.0282412
0.0281683
0.0280078
0.0281593
0.0279458
0.0279772
0.0282198
0.0281454
0.0281554
0.0282299
0.0276014
0.0233413
0.0228953
0.0251637
0.0263124
0.0281978
0.0262956
0.0264023
0.0226542
0.0219503
0.0264863
0.0244559
0.0259439
0.0231456
0.02516
0.0230421
0.0227719
0.0238716
0.0244223
0.0234913
0.0241676
0.0251859
0.0249898
0.0243617
0.0235878
0.0252319
0.0255882
0.0250278
0.0203724
0.0200057
0.022155
0.0236088
0.0118225
0.0108735
0.0207735
0.0207113
0.0115132
0.0137534
0.0161912
0.0163226
0.0178112
0.0153073
0.0130831
0.0109171
0.0263166
0.0254916
0.0258484
0.0263657
0.0255663
0.0268816
0.0264768
0.02568
0.0256858
0.0284948
0.02807
0.0277351
0.0271892
0.0260945
0.0272271
0.026662
0.0276898
0.0270806
0.0264457
0.0279813
0.0072308
0.00889739
0.00375955
0.000838141
0.00208939
0.00470465
0.0119601
0.00381486
0.00763997
0.0075799
0.00141894
0.00636099
0.00703185
0.00405689
0.00699457
0.0135086
0.0135965
0.0119695
0.0100068
0.00833595
0.0174009
0.0145313
0.0144273
0.0116048
0.0156498
0.015715
0.0156922
0.0129571
0.0116173
0.0126873
0.0128107
0.0135165
0.0139473
0.0271668
0.027227
0.0269977
0.026893
0.0276135
0.0275959
0.0270926
0.026928
0.0277825
0.0277763
0.0271644
0.0274693
0.0277566
0.0277149
0.0275952
-0.0124463
-0.0122722
-0.0130774
-0.0131064
-0.0136666
-0.0127743
-0.0126699
-0.0143414
-0.0139859
0.030089
0.0292165
0.0282291
0.0281917
0.0288981
0.028334
0.0305393
0.0279859
0.0317624
0.0303451
0.0281472
0.029995
0.0306113
0.0309322
0.0314201
0.0272532
0.0275574
0.0293174
0.0314356
0.0301116
0.0277204
0.0285846
0.00163868
0.00234975
0.00182521
-0.00025813
0.000805955
0.00182914
-0.00123764
0.000127322
0.0003933
-0.00160976
-0.000499472
-0.00268231
-0.00168888
-0.00269207
-0.00317011
-0.00248687
-0.00129032
0.000338351
-0.00351686
-0.000791646
0.0259833
0.0243676
0.0289572
0.0246375
0.0264558
0.0330815
0.0304066
0.0265528
0.0303411
0.0256573
0.028026
0.0338097
0.0316403
0.0324277
0.0358961
0.02928
0.0287538
0.0269782
0.0314419
0.0253876
0.0285652
0.0263865
0.0300251
0.0345339
0.0354449
0.0334202
-0.0104418
-0.0113624
-0.0107267
-0.0103712
-0.0107168
-0.0113123
-0.0109143
-0.0105838
-0.0117184
-0.0104815
-0.0106854
-0.0111876
-0.0104279
-0.010299
-0.0101708
-0.0104076
-0.0105044
-0.011246
-0.0107278
-0.0101244
-0.0102041
-0.0101661
-0.0100416
-0.010408
-0.0101832
-0.0104143
-0.00819736
-0.00784862
-0.00851798
-0.00889331
-0.00811939
-0.00831705
-0.00806519
-0.00680489
-0.00865703
-0.00610035
-0.00844684
-0.00757155
-0.00700216
-0.00773913
-0.00861055
-0.00865766
-0.00811624
-0.00778216
0.00860598
0.008114
0.004786
0.00659227
0.00539486
0.0035124
0.000163759
0.00464194
0.00493548
0.00255566
-0.00210098
0.00143439
0.002943
0.0232856
0.0240851
0.0244235
0.0230817
0.0247598
0.0245296
0.024944
0.0241068
0.0242154
0.0232475
0.0233851
0.0252858
0.0246836
-0.0140558
-0.0139976
-0.0147097
-0.0142821
-0.0143121
-0.0148161
-0.0162282
-0.0155491
-0.0172823
-0.0150909
-0.0153661
-0.0146919
-0.0164541
-0.0132693
-0.0117294
-0.0115073
-0.0119799
-0.0123419
-0.012841
-0.012868
-0.0132308
-0.0117142
-0.0118487
-0.0123162
-0.0119014
-0.0114747
-0.0118502
-0.0117737
-0.011016
-0.0105852
-0.0107976
-0.010934
-0.0108981
-0.0106681
-0.0105006
-0.0104889
-0.0102537
-0.0105845
-0.0106651
-0.0108666
-0.0108634
-0.0107931
-0.010392
-0.0105698
-0.0114284
-0.0110548
-0.011218
-0.0110273
-0.0111084
-0.0109323
-0.0110688
-0.011455
-0.0111812
-0.0109059
-0.0111789
-0.0111858
-0.0111821
-0.0117232
-0.00476819
-0.00613632
-0.0064514
-0.00478564
-0.00596436
-0.00690859
-0.00681988
-0.00482741
-0.00485845
-0.00551481
-0.00533708
0.0207504
0.0222723
0.0213833
0.0225597
0.0218177
0.0226584
0.0217875
0.0210478
0.0222699
0.0213665
0.0226331
0.0205397
0.0220762
0.0301412
0.0330414
0.0355163
0.0438111
0.0416965
0.0301445
0.0474468
0.046585
0.0336632
0.0391997
0.0317399
0.0338508
0.0424838
0.0464289
0.0491595
0.0372133
0.0390448
0.0360081
0.0456389
0.0436311
0.0417468
0.0388186
0.0311599
0.0313026
0.0310455
0.0298433
0.0296639
0.0283619
0.0288397
0.0290852
0.0285996
0.0274806
0.0276135
0.017846
0.0171794
0.0169708
0.016529
0.0189367
0.0184372
0.0168608
0.0182091
0.0174794
0.0166101
0.0157921
0.0160051
0.0176475
0.0190994
0.0192831
0.0166375
0.0160857
0.0182233
0.0155398
0.0296122
0.0298959
0.029795
0.0297945
0.0305328
0.0303579
0.0301502
0.0299984
0.0299921
0.0303978
0.0311429
0.0308696
0.0312972
-0.0136944
-0.00935105
-0.00657487
-0.0104612
-0.00871487
-0.0039653
-0.0041066
-0.00412165
-0.00289929
-0.00707411
-0.00476899
-0.0136302
-0.0169989
-0.0074269
-0.00436255
-0.0109457
-0.00817547
-0.016994
-0.0116544
-0.0176099
-0.0105569
-0.0103429
-0.0102474
-0.0103301
-0.0104149
-0.0100501
-0.0101913
-0.0102969
-0.0106871
-0.0102583
-0.0101311
-0.0106391
-0.0103949
-0.0101969
-0.010242
-0.0102317
-0.0102293
-0.00990961
-0.0102371
-0.0118061
-0.0130949
-0.011038
-0.0109803
-0.0105954
-0.0127584
-0.0115012
-0.011592
-0.0112218
-0.0114047
-0.0126469
-0.0146127
-0.0120582
-0.0118801
-0.0109656
-0.00902973
-0.0106028
-0.0101837
-0.00936738
-0.0108202
-0.0125892
-0.0101787
-0.00839295
-0.00938334
-0.00874535
-0.0105297
-0.00949963
-0.00339589
-0.00384885
-0.00413065
-0.0040292
-0.00433763
-0.0115875
-0.0132032
-0.0123368
-0.0137011
-0.0178006
-0.0120286
-0.0155365
-0.0172811
-0.0170769
-0.0227852
-0.0239526
-0.0193204
-0.0198688
-0.0203757
-0.0157808
-0.00167692
-0.00204933
-0.00185528
-0.00294381
-0.0026973
-0.00231674
-0.00284628
-0.00198916
-0.00310617
-0.00122972
-0.00113445
-0.00240816
-0.00264056
-0.00252737
-0.000267976
-0.00141795
-0.00237185
-0.00159522
0.0113168
0.00908929
0.00417375
0.011821
-0.00320598
-0.0142113
0.0113994
0.000920525
0.0106579
0.00439618
0.00513715
-0.0269664
-0.0213327
-0.0405986
-0.00204635
-0.00274783
-0.00514468
-0.0173138
-0.0086534
-0.00198258
-0.0197495
-0.0193006
-0.0194365
-0.0179366
-0.0183014
-0.0172476
-0.0170803
-0.0168887
-0.0182452
-0.0184026
-0.0165605
-0.0171555
-0.0176438
-0.0167786
-0.0139989
-0.0123625
-0.0130106
-0.0148578
-0.0106237
-0.0113424
-0.0127007
-0.0147703
-0.0124126
-0.01197
-0.0147102
-0.0135738
-0.00979433
-0.0105674
-0.00971444
-0.0102252
-0.0103295
-0.0106095
-0.00677116
-0.00765475
-0.00651771
-0.00912192
-0.0125942
-0.00799256
-0.015121
-0.0136926
-0.0151257
-0.0148777
-0.00433734
-0.00459477
-0.00489154
-0.00665805
-0.00908716
-0.010075
-0.0110524
-0.0116738
-0.00583975
-0.00901242
-0.00641531
-0.00651192
-0.00660222
-0.00830679
-0.00840386
-0.00778552
-0.00497945
-0.00494604
-0.00607627
-0.00313917
-0.00318753
-0.00628788
-0.00839298
-0.00530492
-0.00422116
-0.00305364
-0.00253633
-0.00679235
-0.00431364
-0.0046635
-0.00609638
-0.00478507
0.0103984
0.010998
0.00807256
0.00841037
0.0111351
0.00921739
0.00873939
0.00941157
0.00992564
0.009369
0.00832546
0.00885346
0.00901346
0.00805367
0.0108735
-0.0145877
-0.0107358
-0.0120772
-0.0138573
-0.0156248
-0.0142753
-0.0107509
-0.0146404
-0.00814751
-0.0077503
-0.00856304
-0.00843305
-0.00851979
-0.00883914
-0.00880365
-0.00806362
-0.00886774