/*--------------------------------*- C++ -*----------------------------------*\
  =========                 |
  \\      /  F ield         | OpenFOAM: The Open Source CFD Toolbox
   \\    /   O peration     | Website:  https://openfoam.org
    \\  /    A nd           | Version:  10
     \\/     M anipulation  |
\*---------------------------------------------------------------------------*/
FoamFile
{
    format      ascii;
    class       volScalarField;
    location    "6";
    object      k;
}
// * * * * * * * * * * * * * * * * * * * * * * * * * * * * * * * * * * * * * //

dimensions      [0 2 -2 0 0 0 0];

internalField   nonuniform List<scalar> 
75457
(
1.80336
1.92951
1.2439
0.683957
1.4183
1.58199
1.57155
1.60889
0.459191
0.43155
0.359893
1.19297
1.05603
0.47563
0.0158532
0.015741
0.00950588
0.0171021
0.0148358
0.00772729
0.0120884
0.01048
0.0221713
0.0154443
0.0151685
0.0236276
0.019079
0.0146397
0.0277579
0.00944548
0.00894137
0.0319244
0.0378488
0.01784
0.0153663
0.0214868
0.0175348
0.0466049
0.0382951
0.0271191
0.031168
0.0247014
0.0184404
0.0505817
0.0877396
0.0222436
0.0143506
0.049846
0.586557
0.189244
0.381266
0.527111
1.19805
0.372111
0.219494
0.239405
0.94607
0.918037
0.783758
1.27527
1.06274
0.656007
0.454722
0.323191
0.0557821
0.330943
0.0903748
0.377212
0.485088
0.909094
0.464661
0.988076
0.363296
0.0288463
0.454412
0.129326
0.136976
2.7731
2.01026
1.19455
2.55666
2.10859
2.31741
1.39913
0.574983
0.655914
0.847689
0.95312
2.49766
1.9553
1.56017
1.32083
1.43833
0.950387
0.899936
0.329506
0.357059
0.391517
1.70942
0.829869
0.790945
1.22799
0.116179
0.063867
0.0401606
0.0557882
0.187046
0.0406792
1.07552
0.310946
0.375658
0.779844
0.85679
0.716222
0.0612298
0.833982
1.28196
0.457917
0.44915
1.53252
0.0190973
0.0723149
0.0768147
0.185977
0.444515
0.270344
0.842822
0.440258
0.846677
0.0927022
0.169125
0.900725
0.272679
0.585582
0.518467
0.866068
0.360161
0.74205
0.708759
1.30031
0.134426
0.264137
0.458432
0.151288
0.188103
0.649437
0.585188
0.522688
1.2147
0.697031
1.8252
1.10037
0.282538
0.199941
0.608954
0.976069
0.656125
1.35857
0.412096
0.867757
1.28789
0.313118
0.989612
0.00522656
0.00545162
0.00562108
0.00547909
0.00558183
0.00503296
0.0050003
0.00518993
0.0055482
0.0051102
0.00532757
0.00517776
0.0050471
0.681924
0.726332
0.875607
1.11637
0.961063
1.24234
0.696208
0.903754
1.41702
0.52709
0.71772
0.850804
1.34124
2.79383
0.887304
0.431904
0.77763
0.897429
0.587958
1.45346
0.108053
0.24799
0.188975
0.143826
0.0947991
0.57943
0.725363
0.748893
0.482643
0.527561
0.904387
1.49955
1.45555
1.46726
1.1761
1.17903
1.5346
1.69305
1.05018
1.01293
1.75514
1.12866
1.86233
1.82869
1.65433
0.915358
0.941719
1.28018
0.882759
0.952097
1.82297
0.893386
0.830797
0.973312
0.234082
0.220054
1.25481
0.663519
0.88099
0.753286
1.12471
0.404609
0.426677
0.45809
0.483555
1.01781
1.19857
0.877913
1.21228
0.943386
0.715119
0.860028
1.12748
1.57674
1.06889
1.22828
0.669846
1.1155
0.692269
0.7898
0.428204
0.236224
0.338274
0.0526199
0.128205
0.152041
0.396293
0.37203
0.898197
1.56274
1.08675
2.05571
1.41086
1.37279
1.58836
1.3182
0.793591
0.825252
0.86812
0.746611
0.950931
0.881803
1.17263
0.843667
1.05349
1.02011
0.960113
0.909464
0.768453
0.840547
0.678604
0.279444
0.317783
0.495889
0.413055
0.470995
0.665031
0.972387
1.05955
1.26219
1.10061
0.902838
0.939949
1.10975
0.936485
0.523279
1.1958
0.215047
0.212373
0.30536
0.102963
0.225203
0.174485
0.778898
0.148687
0.167747
0.295773
0.142491
1.08643
1.81244
1.50804
0.996722
0.669642
1.25787
0.540898
0.650195
0.632459
0.717657
1.22801
0.494163
0.430486
0.448123
0.960556
1.07096
0.584683
0.551861
1.07906
1.24694
0.524856
0.547657
1.14776
1.07804
1.81522
1.0604
1.04381
1.64818
0.26775
0.560892
0.324325
0.35384
0.408469
0.266045
0.564362
0.668371
0.326814
0.441008
0.548936
0.523017
1.10976
1.17155
1.30711
2.26995
0.861224
0.737553
1.37596
1.45286
1.46049
1.37558
0.327012
0.330813
0.37009
0.415396
0.60858
0.493404
0.983185
0.501833
0.53866
0.78104
1.36507
0.959858
0.87589
0.823609
0.889905
0.371327
0.549582
0.586752
0.943344
0.8888
1.22092
1.17254
0.862763
1.06193
0.347966
0.310874
0.771063
0.00404063
0.00424595
0.00376181
0.00374818
0.00423325
0.00440352
0.00397938
0.0042744
0.00419559
0.00490612
0.00379369
0.00376635
0.00373626
0.0037764
0.00377967
0.0038488
0.00371156
0.00371751
0.00390958
0.00393516
0.00381426
0.00358153
0.00354363
0.00352582
0.0038994
0.00383865
0.00374008
0.00354382
0.0034881
0.00368922
0.00374304
0.00388321
0.00390761
0.00368542
0.00370432
0.00381953
0.00378039
0.00374034
0.00378417
0.00388074
0.00387199
0.00373662
0.00381772
0.00375138
0.00375779
0.00371546
0.0037826
0.00388049
0.00400119
0.00373508
0.00386345
0.00385245
0.00380505
0.183412
0.0719597
0.0755292
0.0697221
0.0729721
0.151441
0.0638465
0.0740474
0.0531882
0.179596
0.0534998
0.052696
0.0542572
0.0586653
0.0444522
0.156026
1.40481
0.94527
1.09977
0.920651
0.37429
0.398371
0.876289
0.912824
0.357805
0.353021
2.29393
1.47825
1.51615
1.01939
0.42112
0.0611031
0.0131413
0.0189779
0.0779528
0.0760949
0.0482473
0.0183924
0.0179601
0.0179282
0.0223978
0.0139204
0.0450544
0.0750389
0.0717359
0.081379
0.250429
0.0925205
0.0567179
0.0559669
0.00399684
0.00405374
0.00406374
0.00399332
0.00392464
0.00413088
0.00415273
0.00379462
0.00393064
0.00409538
0.00410893
0.00439055
0.00413454
0.00397012
0.00396744
0.00400336
0.0049113
0.00469616
0.00497664
0.004723
0.00453294
0.0050299
0.00542408
0.00511209
0.00496205
0.0051179
0.00504797
0.00488298
0.00511896
0.00487257
0.00496377
0.00538932
0.00540843
0.00444028
0.00477004
0.0044975
0.00473777
0.00466453
0.00453458
0.00340458
0.00703234
0.0042889
0.00460502
0.00401647
0.00446707
0.00429323
0.004476
0.00420583
0.00429035
0.00347368
0.134003
0.0757145
0.115799
0.173869
0.0623053
0.149797
0.0890682
0.131479
0.0785946
0.0657176
0.0996849
0.174857
0.137731
0.0885148
0.0944072
0.116275
0.169219
0.181479
0.0351965
0.0504865
0.0581736
0.0828517
0.0115861
0.0991647
0.0338105
0.04445
0.0492153
0.12362
0.0682619
0.05563
0.0621963
0.027612
0.0286551
0.0283307
0.0303996
0.0267588
0.0352591
0.0329804
0.0325449
0.0335062
0.0294679
0.0310092
0.0361741
0.0360006
0.0322212
0.0231688
0.0257904
0.038596
0.0263933
0.0350761
0.00390064
0.00392403
0.00394969
0.00445839
0.00472195
0.00395369
0.00378132
0.00433783
0.00419002
0.00425453
0.00364114
0.00465314
0.137413
0.0843429
0.181251
0.0721624
0.165025
0.121088
0.15346
0.153751
0.160302
0.0502459
0.0407459
0.0452669
0.0458592
0.042826
0.0451673
0.0468624
0.00586715
0.0213415
0.00524188
0.0168339
0.04753
0.0312705
0.056752
0.0391573
0.033779
0.0188102
0.0118236
0.00570642
0.0512759
0.00928973
0.012472
0.0164285
0.00578275
0.00680013
0.0379233
0.00653278
0.00189878
0.0547562
0.0386481
0.010676
0.000340097
0.00277769
0.000824326
0.00200406
0.00307695
0.00267502
0.00672694
0.0536796
0.0442881
0.0451766
0.0137909
0.057571
0.0419557
0.0286702
0.0739666
0.0389364
0.0554674
0.0491687
0.0362629
0.0346464
0.0228814
0.059229
0.0450439
0.0338167
0.0340382
0.0690395
0.044676
0.0339355
0.0643573
0.0343495
0.0380723
0.0147869
0.0114307
0.0128226
0.0111887
0.0111909
0.0248432
0.0117252
0.0127793
0.0153736
0.00972992
0.00927574
0.0128682
0.2091
0.432696
0.465078
0.0277617
0.0805207
0.335021
0.179651
0.0567208
0.0608311
0.550961
0.362665
0.297129
0.283303
0.432939
0.445376
0.409679
0.507539
0.386569
0.450465
0.2858
0.308387
0.452633
0.557331
0.553477
0.530132
0.55425
0.569828
0.430672
0.33649
0.38048
0.372076
0.359502
0.0356747
0.0267481
0.0870724
0.0608267
0.0707255
0.0300823
0.0533117
0.0523613
0.0498745
0.162566
0.205075
0.265096
0.0261042
0.207143
0.370825
0.154286
0.263186
0.00157124
0.038281
0.105437
0.28871
0.0428888
0.0596172
0.278768
0.191454
0.0501122
0.27883
0.0519408
0.186859
0.124861
0.137163
0.433581
0.176814
0.822255
1.08652
0.705054
0.626095
0.37244
1.01786
0.770986
0.743508
0.0596179
0.070116
0.0148974
0.0197964
0.00956804
0.0101189
0.0225078
0.0331528
0.118936
0.0488777
0.0744863
0.0834306
0.0268666
0.0145753
0.0857709
0.0358251
0.0780012
0.0762297
0.058718
0.119106
0.131625
0.0474452
0.0380405
0.0133283
0.0659373
0.0190546
0.011765
0.0615453
0.0868736
0.0194347
0.0499157
0.0450765
0.0281364
0.0283696
0.0887368
0.026501
0.0367137
0.126316
0.063207
0.0169955
0.00819283
0.0137075
0.102544
0.189013
0.0452019
0.0558817
0.120736
0.16413
0.0488241
0.0443465
0.0805231
0.0546929
0.0551309
0.105816
0.11657
0.159387
0.0589317
0.0580829
0.0843029
0.164795
0.0497034
0.0488845
0.0846818
0.0412679
0.0961759
0.135027
0.0128047
0.0192394
0.022689
0.0297321
0.0145142
0.0184865
0.0313147
0.0770025
0.13109
0.0928097
0.0213636
0.0242054
0.0163485
0.048118
0.0275984
0.0194762
0.0181345
0.0160994
0.016333
0.0182129
0.0149532
0.0127593
0.013327
0.0129217
0.0166932
0.0173804
0.0119167
0.0170002
0.0178445
0.0037928
0.00376546
0.00391347
0.00385688
0.00391611
0.00386167
0.00403386
0.00389971
0.00416933
0.00428861
0.133443
0.0881466
0.144093
0.192077
0.0568725
0.0517487
0.180653
0.262153
0.0746744
0.158385
0.148053
0.149059
0.188458
0.048038
0.178771
0.146656
0.0285566
0.500093
0.563776
0.491449
0.808778
0.715094
0.56377
0.875583
0.804032
0.815579
0.812084
0.466352
0.476734
0.632784
0.536551
0.687534
0.721395
0.640006
0.446036
0.55699
0.544452
0.00228784
0.00366901
0.00369919
0.00213148
0.00495706
0.0293295
0.0337748
0.00557168
0.00380448
0.00338368
0.0321436
0.0401406
0.00203207
0.0183203
0.0244588
0.0467041
1.24168
1.26677
1.62827
1.70877
1.20693
1.55886
1.26893
1.71464
2.24608
2.07577
1.32366
1.26906
1.66609
0.0405994
0.0557014
0.0459801
0.0401623
0.0322374
0.0346121
0.0524268
0.0433724
0.0367097
0.0389832
0.0285757
0.0360239
0.0416639
0.117862
0.0961202
0.054172
0.12295
0.110797
0.0508471
0.0463098
0.0438062
0.0536194
0.00174126
0.0002198
0.00289371
0.00147381
0.00145923
0.0265976
0.105946
0.00429698
0.0382177
0.13564
0.13431
0.0899218
0.0871322
0.102409
0.0233354
0.0682183
0.0998362
0.083656
0.0313959
0.0314951
0.0703683
0.0156511
0.0419415
0.034373
0.0281579
0.0288973
0.0420486
0.0220573
0.292414
0.315802
0.299291
0.288874
0.285126
0.286524
0.300398
0.285234
0.305449
0.267365
0.281156
0.280509
0.337116
0.311614
0.319071
0.289551
0.0695353
0.162586
0.130511
0.0735162
0.0107005
0.0201504
0.0258333
0.0114482
0.0108011
0.0100437
0.0995918
0.0690111
0.0183127
0.0133473
0.0287695
0.0222443
1.18924
1.67867
1.16566
1.51482
1.30713
1.85995
0.499234
0.614271
0.476306
0.50924
0.521956
0.732142
1.4376
1.80537
1.22056
0.812147
1.01902
1.02765
0.773316
1.71975
0.0135769
0.00924562
0.00733953
0.00651272
0.00768234
0.00590468
0.00658393
0.00672331
0.00666303
0.0147485
0.0165778
0.00879655
0.00865488
0.00587821
0.0153993
0.0511934
0.0695765
0.111046
0.154459
0.214299
0.20743
0.24666
0.0863817
0.336721
0.458585
0.408267
0.183081
0.507721
0.53933
0.0216668
0.0378774
0.0137278
0.0213486
0.019686
0.0279306
0.0106967
0.00677111
0.0292304
0.00604057
0.0142058
0.00611965
0.00726299
0.00476671
0.00473797
0.00528368
0.0679576
0.0737143
0.0599159
0.0585944
0.214996
0.22349
0.0431969
0.11949
0.115385
0.0471923
0.21223
0.177189
0.266439
0.158732
0.171544
0.229383
0.23578
0.282068
0.285257
0.013019
0.0478143
0.0151352
0.0288872
0.0145577
0.126287
0.0329837
0.0656662
0.0786796
0.0566856
0.0130172
0.0181596
0.0177491
0.0157316
0.0860923
0.0702364
0.0468599
0.116565
0.0784623
0.0959583
0.0364795
0.057029
0.118583
0.0761287
0.059265
0.0159225
0.0118572
0.0105005
0.0780241
0.00470591
0.00648486
0.0253429
0.0228523
0.0125674
0.0109168
0.025997
0.0288475
0.0131213
0.0250373
0.00904857
0.00731406
0.00730437
0.00805347
0.0307406
0.00852743
0.0232958
0.0209434
0.0167564
0.0313171
0.024553
0.0252285
0.0615696
0.0232584
0.0651195
0.0718368
0.0559866
0.0396572
0.535905
1.11007
1.59433
0.864371
1.23663
0.644513
0.772831
1.17285
1.35278
0.478134
0.914529
1.07208
1.54497
0.625818
1.06391
0.311562
0.792668
0.455239
0.37
0.685969
0.814707
0.621895
0.359912
0.329151
0.32137
1.15573
1.16987
1.15977
1.29915
0.31698
0.331654
0.31366
0.284326
0.308124
0.587502
0.603437
0.52435
0.0381969
0.080393
0.0184831
0.0385156
0.0245933
0.0146274
0.00414719
0.0239002
0.0115311
0.00990486
0.00665646
0.00721391
0.00763853
0.00894389
0.0114315
0.00626178
0.288217
0.291924
0.350069
0.370914
0.764905
0.626505
0.28904
0.496796
0.580915
0.847249
0.789222
0.908798
0.197868
1.17562
1.34733
0.968419
1.12864
0.28519
0.0690122
0.927561
0.0618722
0.95406
1.22113
0.399541
0.745994
0.297502
1.09808
1.40033
1.0406
0.130938
0.34699
0.438512
1.54252
0.360003
0.730079
0.806446
1.31032
0.387607
0.579762
0.5683
1.08375
0.317451
0.481282
1.56313
0.359884
0.726221
0.391894
0.907659
1.35353
0.736068
0.437373
1.0746
1.18552
0.361535
0.223806
0.845159
0.225268
0.808811
1.33975
0.801961
0.214358
0.255625
1.23292
0.816315
0.262895
0.220281
0.316341
0.23544
0.100318
0.160296
0.122761
0.255133
0.266052
0.0640156
0.0784162
0.0833214
0.207743
0.313182
0.127956
0.160205
0.0811943
0.21469
0.230449
0.0832937
0.078827
0.0443553
0.0366236
0.0392507
0.0454536
0.120602
0.068393
0.0447524
0.068282
0.0448574
0.414568
0.697287
0.287454
0.0108538
0.0104581
0.0100666
0.0103728
0.0111667
0.00933239
0.0325853
0.0391719
0.0607921
0.0319042
0.00161876
0.0128497
0.0140725
0.00848233
0.0274921
0.026485
0.0782411
0.0303374
0.00659388
0.00739468
0.522067
0.56662
0.564278
0.465156
0.654165
0.660654
0.814344
0.761092
0.41238
0.483807
0.553934
0.534682
0.533245
0.752768
0.448193
0.504087
0.488435
0.416799
0.425308
0.0273885
0.012838
0.0188588
0.0145716
0.335684
0.481748
0.152447
0.24964
0.0369508
0.0183233
0.253987
0.0678022
0.0236839
0.166809
0.434414
0.150977
0.0882607
0.218332
0.100926
0.20877
0.0378265
0.0350957
0.0724458
0.0473409
0.070959
0.7665
0.983129
0.43478
0.498691
0.346181
0.197145
0.130075
0.177574
0.149862
0.550818
0.191696
0.0694137
0.0387445
0.137746
0.416507
0.305179
0.280085
0.268864
0.336934
0.334531
0.378707
0.364865
0.350917
0.462855
0.479241
0.555608
0.524993
0.368864
0.317291
0.407924
0.0235302
0.022243
0.0247541
0.02992
0.0303871
0.0269065
0.0503802
0.0418808
0.0448336
0.0276891
0.0314425
0.0300558
0.0454797
0.0351459
0.0358
0.0345139
0.0417257
0.0391447
0.0394234
0.0304047
0.727149
1.00044
0.599474
1.00653
0.459016
0.521916
0.185731
0.324669
1.1134
0.653229
1.12609
0.934886
0.24381
0.233783
1.14249
0.835476
1.1203
0.73116
1.40769
0.483523
0.0219416
0.0445975
0.0551579
0.0549589
0.0372826
0.0281687
0.025
0.039119
0.0490223
0.0417543
0.0425907
0.038036
0.0658532
0.0316513
0.0840429
0.0765669
0.0784462
0.480192
1.03447
0.94275
1.79723
0.526134
0.596114
0.766682
0.825943
2.70019
0.783345
0.482216
1.50058
0.0119949
0.0104996
0.00902806
0.00414653
0.0114681
0.00836012
0.00771433
0.00527241
0.00495243
0.0136163
0.008841
0.00484027
0.056985
0.00027581
0.0196597
0.00104063
0.0309988
0.0975849
0.00111061
0.0562925
0.0805013
0.165503
0.149326
0.00617715
0.0105939
0.249879
0.175975
0.264445
0.0105929
0.0219657
0.0356163
0.00793051
0.017287
0.0204423
0.00756336
0.0716663
0.0206486
0.0305956
0.0098766
0.0516152
0.152031
0.0373404
0.0651168
0.0947369
0.359858
0.0103224
0.0157623
0.264239
0.457232
0.0390206
0.0237789
0.0974327
0.241735
0.0696374
0.236157
0.241294
0.200565
0.106991
0.151898
0.214838
0.152902
0.154899
0.0760661
0.0165143
0.126818
0.0659323
0.0613885
0.0222176
0.0185169
0.0284922
0.0347427
0.0600946
0.00258647
0.00489037
0.00181683
0.00364207
0.0801709
0.0798362
0.0100915
0.00131029
0.00670213
0.0439396
0.0756267
0.0736162
0.0112535
0.00355107
0.00524881
0.133913
0.0767957
0.511305
0.358574
0.122816
0.485337
0.327881
0.217737
0.104131
0.0196865
0.00135778
0.0160737
0.0538421
0.00538155
0.020973
0.0213611
0.00744203
0.0268953
0.0188785
0.0204803
0.0246577
0.0248936
0.0106135
0.0110005
0.0227814
0.0274604
0.0257778
0.0207278
0.0176764
0.0261308
0.0200786
0.103199
0.0597189
0.060914
0.125398
0.0559139
0.411632
0.996274
0.0749675
0.277811
0.348225
0.152601
0.31459
0.303861
0.0950551
0.336217
0.645522
1.23298
0.713186
0.500561
0.388104
0.228596
0.0669059
0.0832356
0.381633
0.347398
0.153568
0.148471
0.146133
0.0807406
0.100584
0.156362
0.0943671
0.0819024
0.124254
0.07196
0.046172
0.128711
0.195489
0.12599
0.123627
0.121072
0.108636
0.100179
0.141451
0.15449
0.0907254
0.0716844
0.0822906
0.209152
0.103497
0.137903
0.152176
0.303664
0.168868
0.0944738
0.0919029
0.455082
0.345439
0.384382
0.487113
0.470438
0.39316
0.889992
0.712502
0.545472
0.763553
1.13108
0.692778
0.405467
0.776117
0.415507
0.728621
0.762059
1.44717
1.51895
0.833588
1.36711
1.61224
1.0675
1.51238
1.05205
0.716213
0.487715
0.347253
1.37234
0.976167
0.994321
0.183799
0.324705
1.18294
0.260753
0.971315
0.86204
0.245797
0.216165
0.182893
0.831428
0.688731
0.696573
0.718187
0.665317
0.69744
0.707416
0.646785
0.715654
0.697266
0.690166
0.714779
0.757414
0.704817
0.729964
0.637007
0.781009
0.719333
0.808659
0.654365
0.752682
0.807579
0.724946
0.635549
0.206613
0.23503
0.265255
0.733127
0.538582
0.959484
0.646962
0.567118
0.212111
0.431767
0.753785
0.536088
1.13743
1.06918
0.431443
0.461619
0.508176
1.4775
0.891894
0.940462
0.63974
0.396077
0.962376
1.0688
0.457251
0.340808
0.253154
0.935117
0.800041
1.02314
1.30826
0.59576
0.879507
0.884449
0.260157
0.663005
0.736396
0.290009
0.283256
0.994951
0.795894
0.811288
1.14188
0.814223
0.855464
0.31057
0.287651
0.661603
0.316718
0.324883
0.305444
0.200849
0.315113
0.240992
0.233277
0.205503
0.377704
0.167085
0.160694
0.259455
0.243532
0.132396
0.156403
0.206004
0.141772
0.140677
0.0335385
0.0296149
0.048946
0.0452464
0.0429762
0.0596323
0.0268918
0.0197627
0.0408352
0.0392323
0.0287346
0.0877114
0.0452107
0.0503171
0.0468256
0.0721803
0.0371753
0.0606183
0.0532363
0.0948208
0.0768199
0.065363
0.0585009
0.0429699
0.0379298
0.0370134
0.0268685
0.0107591
0.00584492
0.0265018
0.0305825
0.00324673
0.00247438
0.0194925
0.0227998
0.00156787
0.0103461
0.00617861
0.01183
0.00970496
0.551766
0.525415
0.562787
0.640238
0.540964
0.584128
0.702905
0.496565
0.60936
0.588697
0.447516
0.500456
0.552045
0.542039
0.986641
0.60466
0.698553
0.123454
0.0215617
0.137014
0.671261
0.54105
0.0276321
0.0903249
0.0807358
0.012253
0.260979
0.371566
0.644826
0.126655
0.120388
0.43969
0.650044
0.0802072
0.0881392
0.0911037
0.088903
0.116029
0.166347
0.0849201
0.898815
0.719455
0.1363
0.114288
0.256679
0.473001
0.754716
0.506582
0.59488
0.611544
0.753798
1.2013
1.59526
1.01864
1.45982
0.3146
0.622254
0.283903
0.027754
0.0237636
0.0273364
0.0219832
0.00702026
0.0207773
0.0122367
0.0132468
0.0274942
0.031732
0.028582
0.0240585
0.0180585
0.0251611
0.124807
0.159642
0.0867703
0.101669
0.228904
0.0899263
0.0967353
0.214982
0.334484
0.252285
0.398964
0.151452
0.146153
0.241199
0.0685367
0.656815
0.69864
0.645763
1.0685
0.921432
0.931266
1.29053
1.18132
0.699076
0.457158
0.874621
0.985703
1.04164
1.06955
1.02291
1.277
1.08321
1.01714
0.0294423
0.0410804
0.0249017
0.0242986
0.027359
0.023912
0.0282353
0.0222453
0.022073
0.017471
0.921993
0.908341
0.65867
1.11713
0.232265
0.193403
0.144362
0.288747
0.523785
0.64364
0.894292
0.923862
0.76153
0.173714
0.192586
0.0685325
0.587809
0.812985
0.179222
0.18565
0.156913
0.187245
0.210132
0.235133
0.217796
0.218001
0.318649
0.673847
0.313116
0.138823
0.149877
0.67843
0.480101
0.691094
0.335235
0.104526
0.109186
0.275424
0.316751
0.198201
0.00695636
0.00685067
0.00651607
0.00699096
0.00662322
0.0063292
0.00670214
0.0065688
0.00614326
0.00644826
0.00626964
0.00652785
0.00675025
0.00654625
0.00628195
0.00601393
0.00612107
0.00591049
0.0062656
0.869671
0.940637
0.694404
0.823611
0.729997
0.760369
0.904039
0.730259
0.735347
0.654145
0.908801
0.943515
0.95789
0.852412
0.770748
0.756618
0.876373
0.896105
0.0277396
0.0289378
0.0242717
0.0220819
0.0370024
0.0310497
0.0358733
0.0302527
0.0280232
0.0471937
0.0354756
0.0368829
0.037008
0.0444472
0.0597985
0.0571447
0.00401465
0.00411725
0.00410563
0.00403199
0.00406538
0.00400672
0.0039918
0.00394824
0.00397652
0.0039653
0.00397484
0.00392858
0.00398434
0.00460259
0.00456507
0.00468623
0.00467165
0.00460392
0.00447731
0.00496211
0.00471602
0.00508731
0.00476333
0.00488345
0.004868
0.00479913
0.00495151
0.00464328
0.00428149
0.0048306
0.00405262
0.00447361
0.00457448
0.00190633
0.00407208
0.00427715
0.00444001
0.0044148
0.00456505
0.00378471
0.00430339
0.00425584
0.00430687
0.00371992
0.00882684
0.00882748
0.00860692
0.00800518
0.00814061
0.00846531
0.007873
0.00791619
0.00823843
0.0083062
0.00998183
0.0098132
0.0084017
0.00803251
0.008263
0.00832444
0.00976141
0.00867393
0.00888327
0.00868403
0.668259
0.646671
0.605481
0.426887
0.549526
0.500257
0.664059
0.574652
0.661402
0.329779
0.351849
0.615649
0.497897
0.574391
0.658242
0.904561
0.582427
0.709401
0.816766
0.88699
0.993061
0.693385
0.822959
0.935202
0.818501
1.07174
1.1984
1.01794
0.53314
0.472958
0.542856
1.0421
1.02753
0.011675
0.0108964
0.0109305
0.00961217
0.0124171
0.011089
0.00963307
0.00950052
0.0102593
0.0109186
0.0088014
0.00872342
0.00858594
0.00924439
0.00975747
0.0780483
0.0538478
0.0511275
0.0518625
0.103897
0.0943029
0.0925523
0.107011
0.109861
0.00809073
0.0085057
0.00748671
0.00750809
0.00817081
0.00736367
0.00727641
0.00771059
0.00702829
0.00679084
0.00683385
0.00668228
0.00702963
0.00786065
0.00734873
0.00685555
0.00692066
0.00715613
0.0078104
0.00817698
0.00696488
0.00718225
0.00270159
0.00418374
0.00239282
0.00285142
0.0041923
0.00792145
0.00326
0.00256668
0.0019359
0.00267327
0.0022
0.00280213
0.0031796
0.00178278
0.00240417
0.00311065
0.00304014
0.00623694
0.00317769
0.00889334
0.00408314
0.00399916
0.00383686
0.00422208
0.00480066
0.004152
0.00438492
0.00462684
0.00424826
0.00401049
0.00386529
0.00373838
0.00376949
0.00426813
0.0041767
0.00458545
0.00445356
0.0043853
0.00409676
0.0042844
0.00405522
0.0045803
0.00376902
0.00406203
0.00429124
0.00371822
0.0143272
0.0281483
0.0230356
0.0174448
0.00558147
0.0131715
0.000133569
0.00259812
0.0216526
0.0039805
0.0251601
0.0145087
0.0119744
0.00218271
0.00326119
0.0090576
0.00362339
0.00452646
0.00174494
0.00378099
0.00438831
0.0048226
0.00349713
0.00894588
0.00382872
0.0049479
0.00666146
0.00698769
0.00675038
0.00691193
0.00705435
0.00546546
0.00548842
0.020024
0.0106053
0.0127198
0.0182885
0.00785694
0.0107112
0.0103033
0.00997337
0.00835289
0.012616
0.00803812
0.00374105
0.00380102
0.00432109
0.00374482
0.00366237
0.00459633
0.0039999
0.00369221
0.00364152
0.0038029
0.00461729
0.00369179
0.00347813
0.00547836
0.00600525
0.00560036
0.00507283
0.00559487
0.00597925
0.00641784
0.0057826
0.00553942
0.00558035
0.00549922
0.00601376
0.00569661
0.101222
0.0518
0.0835103
0.0933021
0.0812109
0.0623523
0.0775688
0.0806904
0.0789833
0.106523
0.0976147
0.0901895
0.101731
0.0136609
0.00835455
0.00996085
0.00838033
0.00741279
0.0133869
0.00297828
0.0198127
0.00800934
0.00780483
0.00755298
0.00464926
0.00241828
0.00198096
0.00693565
0.0137346
0.0104825
0.0193412
0.0163721
0.0299475
0.00952814
0.0038093
0.0426163
0.0361046
0.0899544
0.0238732
0.0385307
0.0213971
0.00909704
0.0333691
0.0126068
0.010709
0.0194002
0.0109472
0.0189121
0.00944584
0.0294396
0.012372
0.00600862
0.00917734
0.0257521
0.0106134
0.0054049
0.0108987
0.0126754
0.227535
0.265581
0.273983
0.198905
0.26182
0.229267
0.269967
0.219846
0.223184
0.239093
0.222314
0.00397348
0.00385999
0.00411195
0.00428625
0.00441804
0.0040613
0.00426444
0.00411085
0.00429551
0.00430448
0.00407356
0.00409209
0.0041749
0.00232977
0.00836311
0.000134061
0.0388867
0.00269502
0.00622901
0.00446881
0.00399687
0.00623981
0.00800757
0.00447791
0.00545205
0.00573805
0.00503822
0.0103334
0.00421672
0.00522354
0.00520575
0.00841395
0.00452013
0.00484913
0.00472474
0.00357614
0.00383142
0.0030811
0.00216256
0.00467097
0.00336512
0.00345874
0.00457631
0.00349232
0.00377799
0.00397982
0.00379513
0.00387066
0.00350972
0.00333984
0.00378891
0.00385464
0.00396539
0.00392679
0.00424804
0.00418421
0.00403173
0.00393978
0.00396346
0.00400312
0.00401101
0.00395331
0.00452092
0.00412205
0.00411382
0.015883
0.0146091
0.0185489
0.0129919
0.0132512
0.0171447
0.0186961
0.0151638
0.0173615
0.0161059
0.0132895
0.0174595
0.0142814
0.00110528
0.00519094
0.00453491
0.0026922
0.00365515
0.00347028
0.00335085
0.00384511
0.00368623
0.00356053
0.00354537
0.00391276
0.00187026
0.00343095
0.00384286
0.00296879
0.00393282
0.00277947
0.00616618
0.00685646
0.00365887
0.00786636
0.0122255
0.00737898
0.0069504
0.0183478
0.0149829
0.0117502
0.0207607
0.0262331
0.0201834
0.0229869
0.0315145
0.0158647
0.0158844
0.0237392
0.0265396
0.018878
0.0286634
0.173213
0.561178
0.13039
0.227902
0.178422
0.416245
0.056122
0.0573339
0.42009
0.0525041
0.24795
0.635966
0.284762
0.229508
0.28024
0.193169
0.0369985
0.16522
0.316146
0.0779638
0.410842
0.261412
0.115776
0.0399758
0.145277
0.344013
0.371813
0.00525646
0.0143491
0.0157889
4.6207e-05
0.00669996
0.594285
0.235363
0.525339
0.0154362
1.1555
0.111666
0.939012
2.27507
1.67143
0.732359
1.82545
2.3468
0.641007
1.52982
0.271759
0.367068
0.322208
0.396727
0.355623
0.2416
0.0894681
0.123389
0.323964
0.290664
0.0733315
0.0671589
0.294173
0.395125
0.117353
0.0789403
0.126379
0.152707
0.15081
0.0420495
0.0770082
0.124936
0.116932
0.0770366
0.139458
0.0686521
0.19168
0.0256145
0.0429944
0.318613
0.492577
0.387029
0.368831
0.231355
0.0916558
0.114532
0.178516
0.392655
0.112903
0.285541
0.351193
0.173004
0.157245
0.180673
0.125549
0.144754
0.252818
0.460055
0.392889
0.0697051
0.259722
0.44084
0.265347
0.0431223
0.00482106
0.018741
0.00508372
0.00299132
0.00318626
0.0297613
0.0046827
0.0272996
0.0333103
0.0400017
0.024681
0.00373585
0.000882849
0.0032249
0.00634817
0.0139163
0.0133616
0.492218
0.753315
0.697195
0.73434
0.874975
0.654578
1.31119
0.169682
1.08021
0.688719
0.259809
0.184094
0.263292
0.39951
0.683268
0.180714
0.865918
0.672149
0.192722
0.370844
0.0118428
0.19187
0.00282016
0.00295939
0.00207387
0.00212567
0.00282963
0.00279724
0.00286301
0.00269609
0.00280156
0.00309085
0.00268671
0.0027307
0.00255856
0.00258304
0.0026011
0.00243283
0.00262333
0.0028028
0.00268923
0.00255582
0.00822322
0.0250967
0.0786516
0.00424445
0.00149822
0.00299081
0.0855625
0.000775157
0.0188243
0.00357428
0.00365877
0.0264335
0.00353455
0.00358868
0.0256965
0.824028
1.1093
0.837803
1.73132
1.38967
1.80705
1.91049
0.892228
0.010506
0.00767511
0.0246909
0.0197649
0.0205774
0.00630759
0.0110617
0.00534182
0.0210904
0.0155461
0.00557399
0.0151422
0.0818783
0.118252
0.962773
0.361823
0.0888269
0.160349
0.886435
0.667815
0.871567
0.921964
1.30384
0.675123
1.07497
1.69746
0.517706
0.201791
0.205553
0.284333
0.00237048
0.00509207
0.00592068
0.00734397
0.00678228
0.00233729
0.00297528
0.00533128
0.00503272
0.00602675
0.00917807
0.00405727
0.0036049
0.00675953
0.00334073
0.00814008
0.00955685
0.00408922
0.0156783
0.01851
0.0552029
0.0690089
0.034794
0.065559
0.0201715
0.0233788
0.027583
0.0718708
0.0384984
0.0248879
0.0923621
0.0266611
0.0140515
0.0406499
0.0531741
0.0241681
0.0186531
0.0601118
0.0134148
0.0213277
0.0145443
0.0131841
0.0151035
0.0177388
0.0139134
0.0167813
0.0146731
0.0130788
0.0156651
0.0174711
0.0172439
0.0157929
0.0155474
0.0144117
0.0157432
0.0140251
2.24872
2.15303
2.19989
2.5675
1.7932
1.54997
1.04382
0.867218
0.702715
0.726943
0.727499
0.748993
1.31455
0.690399
0.741194
0.726435
0.752522
0.863152
0.0548333
0.042527
0.0361673
0.0252704
0.0216943
0.0178612
0.0179848
0.0203918
0.0865988
0.0650705
0.0248629
0.0183078
0.0189819
0.0209928
0.0525898
0.0293308
0.00819584
0.00290865
0.00287214
0.00285848
0.00412494
0.00302272
0.00303783
0.00311156
0.00233993
0.00219971
0.0115116
0.00872576
0.0152312
0.000740821
0.00270518
0.00227785
0.0024664
0.00274568
0.00631455
0.0122999
0.466558
0.458297
0.376012
0.210667
0.0545703
0.228445
0.0199297
0.177188
0.220257
0.343844
0.0616345
0.0505213
0.123528
0.146368
0.0739871
0.0884178
0.0424413
0.0334351
0.024724
0.0503941
0.0292932
0.0462143
0.00845043
0.0399054
0.0107168
0.00649784
0.00894305
0.00594883
0.233781
0.162053
0.0978873
0.194927
0.291445
0.0588715
0.0390325
0.17442
0.191121
0.168698
0.039497
0.029523
0.0971772
0.122562
0.0733334
0.0500048
0.0834272
0.0361104
0.0320559
0.00774632
0.0380031
0.0371737
0.0410663
0.0394973
0.0276203
0.0314535
0.0153024
0.0139468
0.0188978
0.0132541
0.046274
0.0455945
0.0226803
0.0372438
0.032283
0.0257458
0.0379663
0.01334
0.00237563
0.0529469
0.0412334
0.0110085
0.0141459
0.0317995
0.000152807
0.00112946
0.00182139
0.000638598
0.00357692
0.00154226
0.000235111
7.06038e-05
0.00651518
0.0225926
0.0172334
0.00615572
0.00585286
0.0127405
0.00913769
0.0116557
0.00777492
0.00854733
0.00318328
0.00497424
0.000628285
0.009374
0.00918189
0.00498314
0.00465647
0.0049771
0.00500376
0.00458753
0.00475661
0.00506117
0.00486001
0.00485827
0.0048205
0.00495657
0.00472296
0.0045768
0.00479515
0.0120679
0.0124023
0.0167155
0.0162451
0.0171377
0.0172758
0.011964
0.0106743
0.014256
0.0151523
0.0123683
0.0153363
0.0132143
0.0138158
0.0332242
0.0360586
0.0361956
0.0436776
0.0890919
0.0936602
0.0915107
0.10512
0.0348077
0.0666164
0.0613924
0.0611853
0.0841509
0.0593834
0.0555395
0.377949
0.452385
0.0430137
0.00657076
0.140076
0.392881
0.487443
0.00275863
0.0554006
0.0281356
0.062635
0.136121
0.0358278
0.0567002
0.0264016
0.00856089
0.0392261
0.327966
0.282818
0.197002
0.257319
0.218388
0.188949
0.225127
0.267124
0.191465
0.197686
0.209318
0.266374
0.255905
0.208172
0.160611
0.197694
0.233454
0.231188
0.250607
0.264369
0.259672
0.220309
0.105332
0.110847
0.173405
0.151699
0.176376
0.245125
0.113576
0.107355
0.106909
0.159794
0.108539
0.107735
0.210154
0.215221
0.1844
0.108978
0.168489
0.0814795
0.0630962
0.215693
0.198669
0.202957
0.147277
0.214275
0.0581728
0.151225
0.0676586
0.202134
0.241022
0.149281
0.184252
0.211521
0.22526
0.116839
0.177069
0.202825
0.252094
0.222874
0.216428
0.196416
0.186603
0.152041
0.209354
0.0844201
0.106942
0.199931
0.127802
0.118826
0.119102
0.00356152
0.00375746
0.00392484
0.00357863
0.00333431
0.00368765
0.00333499
0.00337686
0.00362655
0.00338793
0.00335303
0.00333285
0.00339551
0.00340447
0.00335594
0.00334904
0.00335212
0.00335803
0.00330797
0.00336645
0.000339546
0.0122261
0.00440375
0.00592962
0.0282542
0.0106684
0.00560522
0.0187198
0.00708392
0.00558125
0.00382379
0.0359827
0.00664053
0.00609075
0.00605405
0.00606461
0.00667433
0.00622428
0.00689195
0.00692684
0.00642282
0.0062251
0.00612428