/*--------------------------------*- C++ -*----------------------------------*\
  =========                 |
  \\      /  F ield         | OpenFOAM: The Open Source CFD Toolbox
   \\    /   O peration     | Website:  https://openfoam.org
    \\  /    A nd           | Version:  10
     \\/     M anipulation  |
\*---------------------------------------------------------------------------*/
FoamFile
{
    format      ascii;
    class       volScalarField;
    location    "6";
    object      nut;
}
// * * * * * * * * * * * * * * * * * * * * * * * * * * * * * * * * * * * * * //

dimensions      [0 2 -1 0 0 0 0];

internalField   nonuniform List<scalar> 
75457
(
0.0565748
0.0596495
0.0485844
0.0213851
0.0568994
0.0233577
0.0580147
0.0204687
0.0266979
0.0254789
0.0225836
0.0397841
0.0521291
0.0199567
0.00771819
0.00775984
0.00512831
0.00806486
0.00733716
0.00419787
0.00613441
0.0054067
0.0105104
0.00739145
0.00745222
0.0106538
0.00863251
0.00730253
0.0131217
0.00474144
0.00462592
0.0143198
0.0164696
0.0093067
0.00806226
0.0109744
0.0091583
0.0193566
0.0164687
0.0139971
0.0156741
0.0128175
0.00965811
0.0194098
0.030333
0.00950867
0.00638921
0.0191922
0.0965374
0.0553745
0.0779085
0.0949033
0.0877782
0.0797114
0.0589282
0.0609056
0.121363
0.105254
0.0996521
0.0149311
0.0890964
0.100434
0.0520393
0.0448837
0.00788061
0.0413493
0.0135122
0.0454723
0.0570836
0.0115965
0.0566196
0.0126327
0.0467897
0.00372152
0.0562918
0.0180771
0.0180145
0.183883
0.197653
0.147166
0.161006
0.141474
0.225168
0.181203
0.0834497
0.0966795
0.11576
0.106725
0.200073
0.145441
0.209285
0.183159
0.134256
0.139015
0.159114
0.0981839
0.0977891
0.100769
0.0140743
0.122014
0.0947363
0.112135
0.00524986
0.0031919
0.00101423
0.00135719
0.00898027
0.00217595
0.0101474
0.0428446
0.0666727
0.00811458
0.00808507
0.0533872
0.0115101
0.0846656
0.0116463
0.0497072
0.0521907
0.0136356
0.00316567
0.0107134
0.0114747
0.0290251
0.0585024
0.0356765
0.00756725
0.0681761
0.0740411
0.0128845
0.0246714
0.130416
0.0416675
0.0965412
0.156168
0.0566264
0.0512408
0.136169
0.123986
0.00989676
0.0305193
0.0490585
0.0691046
0.0349054
0.0413457
0.108906
0.0824207
0.0635556
0.0678416
0.137654
0.0112627
0.118193
0.0553633
0.0483238
0.0663322
0.0758946
0.138891
0.00840858
0.0775992
0.123502
0.00794648
0.0583143
0.122487
0.000865768
0.00087094
0.000860875
0.000880387
0.000872671
0.00087014
0.000864728
0.000855696
0.000881784
0.000849407
0.000867608
0.000869711
0.000868127
0.0787213
0.0918749
0.115623
0.0963166
0.200039
0.00767708
0.180065
0.0749483
0.00869963
0.102009
0.1895
0.0888884
0.075352
0.0173777
0.115781
0.0560362
0.0923612
0.0681138
0.0647348
0.0140126
0.026932
0.0538147
0.0464261
0.0326113
0.02416
0.077136
0.0832346
0.00801421
0.0766914
0.0735117
0.0695045
0.128952
0.116361
0.116136
0.106308
0.103956
0.0127279
0.0132111
0.110506
0.0926638
0.0144064
0.102945
0.0145199
0.01526
0.0630038
0.106712
0.0778021
0.00973831
0.0834298
0.0836771
0.0138519
0.0675467
0.105902
0.00737588
0.0462682
0.0443979
0.0634241
0.0793872
0.0908358
0.104818
0.12107
0.0909089
0.0902348
0.0919687
0.0917632
0.113396
0.00931207
0.123284
0.0732904
0.0927212
0.103796
0.118325
0.103418
0.0123713
0.102485
0.00959554
0.067638
0.0106805
0.0875355
0.00753617
0.0663386
0.0260096
0.0374851
0.00902365
0.0318845
0.0367765
0.0905398
0.0589974
0.0910167
0.0172335
0.0914868
0.0154591
0.0155686
0.0692742
0.0118409
0.0778398
0.137398
0.135245
0.08737
0.124984
0.0924865
0.0772931
0.0110863
0.0830344
0.111404
0.00956581
0.0990248
0.00858333
0.10331
0.00788528
0.100189
0.0666745
0.0757612
0.0907333
0.0816373
0.0861747
0.138432
0.00889279
0.0686553
0.0115499
0.0689327
0.109201
0.11142
0.010141
0.116952
0.0538571
0.013256
0.0505504
0.0509002
0.107077
0.00120329
0.0511238
0.063171
0.00902726
0.0977508
0.0568969
0.0495523
0.0430503
0.0759121
0.084909
0.0886424
0.0618623
0.051397
0.0178406
0.0444276
0.0478792
0.0525187
0.0511379
0.040439
0.110563
0.094304
0.0879036
0.120626
0.0841497
0.0542826
0.057757
0.0975406
0.00834707
0.0937376
0.095026
0.133384
0.13831
0.0123247
0.10869
0.126186
0.0112407
0.0586866
0.071347
0.0170524
0.0522483
0.0359122
0.0268412
0.017492
0.0569118
0.0557245
0.023917
0.067575
0.111472
0.116135
0.145062
0.129809
0.0211384
0.103858
0.133525
0.0181601
0.0136285
0.0195364
0.0130215
0.0811695
0.0864486
0.0748031
0.0883351
0.0875345
0.0831719
0.0952807
0.0870208
0.084795
0.095969
0.0127544
0.0809074
0.0815391
0.114866
0.00824518
0.0582342
0.0568913
0.0723847
0.0118659
0.0134932
0.0678013
0.281199
0.100235
0.121981
0.0711223
0.0718542
0.0935307
0.000893515
0.000927674
0.000851079
0.000849867
0.000924505
0.000958193
0.000882418
0.000933012
0.000911425
0.00106478
0.000838858
0.000850041
0.000826189
0.000841697
0.000849988
0.0008434
0.000835972
0.000841675
0.000895215
0.000901385
0.000858088
0.00081747
0.000793964
0.000802202
0.000867344
0.000857325
0.000856492
0.00080003
0.00079022
0.00082665
0.00084142
0.000911311
0.000903701
0.000850059
0.000847108
0.000884196
0.000868767
0.000853072
0.000853118
0.000909876
0.000899791
0.000875779
0.000895713
0.000867922
0.000860292
0.000856922
0.000856313
0.000892189
0.000914637
0.000860864
0.000883059
0.000889368
0.000872414
0.0498583
0.0250889
0.026155
0.0242352
0.0254331
0.0433405
0.022207
0.0262403
0.0193855
0.0477547
0.019827
0.0189383
0.0196173
0.0208574
0.016832
0.0461865
0.0448976
0.0278722
0.0580671
0.0301639
0.0293931
0.0304395
0.0493237
0.0294606
0.029177
0.027453
0.0460809
0.0335908
0.0508172
0.0296683
0.0293585
0.00589094
0.00369092
0.00541676
0.0206942
0.0194711
0.0130429
0.00508482
0.00506044
0.00511851
0.00623633
0.00384456
0.0123261
0.0195038
0.0187842
0.0226451
0.0534773
0.024845
0.0155804
0.015355
0.000877295
0.000879396
0.000888405
0.00088653
0.000876526
0.000915164
0.000916973
0.000835487
0.000865907
0.000905068
0.000902117
0.000949155
0.000910042
0.000866417
0.00086153
0.000866002
0.000842513
0.00083931
0.000841192
0.000844833
0.000845176
0.000836107
0.000852974
0.00084721
0.000846362
0.0008482
0.00085964
0.000847668
0.000851003
0.000849071
0.000854627
0.000863033
0.000853607
0.000944619
0.000981299
0.00096327
0.00100836
0.00100952
0.000988074
0.000728753
0.00146471
0.000932346
0.00102396
0.00085216
0.000981198
0.00095596
0.000993881
0.000920932
0.000966466
0.000753324
0.0323001
0.0226821
0.0291809
0.0336995
0.0232227
0.0337159
0.030942
0.0328637
0.027923
0.0236511
0.0273228
0.0343743
0.0343706
0.0276119
0.0275405
0.0405406
0.0351178
0.0370744
0.0173028
0.0244911
0.0272664
0.0348852
0.0060026
0.0398154
0.0166859
0.0215456
0.0236297
0.0463586
0.0303882
0.0264968
0.028543
0.0140242
0.0130019
0.0130058
0.0131397
0.0123826
0.0147953
0.0139891
0.0140148
0.0148826
0.0134565
0.0131075
0.0151374
0.0152284
0.0144651
0.0109189
0.0119576
0.0166376
0.0120021
0.0153473
0.000916468
0.000919248
0.000920085
0.000987524
0.00103268
0.000921857
0.000881785
0.000964277
0.000947278
0.0009504
0.000853216
0.00102296
0.0385402
0.0277597
0.0465293
0.0243659
0.0434636
0.035194
0.0409041
0.0411383
0.0431691
0.0181964
0.0153004
0.016294
0.0156018
0.0147646
0.0162507
0.0160122
0.00315626
0.00944045
0.00286749
0.00781295
0.0161613
0.0117744
0.0163001
0.0148816
0.0134248
0.00861802
0.00578518
0.00301507
0.0157795
0.00461276
0.00596226
0.00725362
0.00158863
0.00187863
0.0104134
0.00177703
0.000499586
0.0148352
0.0106179
0.00297001
9.49789e-05
0.000756791
0.000222703
0.000545774
0.000834093
0.000712006
0.00178909
0.0146304
0.0121875
0.0121859
0.00384899
0.0260856
0.0195064
0.0142849
0.0303572
0.018157
0.0239303
0.0215967
0.01773
0.0163085
0.0116564
0.0254629
0.0202034
0.0158884
0.015907
0.0280936
0.0190715
0.0149797
0.0261771
0.0152546
0.0161853
0.00702121
0.00542617
0.0058954
0.00545188
0.00546765
0.0106319
0.00541129
0.00607768
0.00715487
0.00484856
0.00459043
0.00605598
0.0410741
0.0684979
0.0725585
0.00696671
0.0202328
0.0611557
0.0376542
0.0167357
0.016422
0.0795069
0.0647045
0.0483132
0.0481624
0.0611288
0.0518105
0.0571611
0.0675217
0.0612512
0.0660298
0.0477717
0.0506242
0.0607189
0.0616285
0.0617119
0.0637211
0.0619685
0.0637654
0.0558991
0.0505082
0.0507579
0.0503489
0.0501239
0.0130852
0.00968383
0.029074
0.0212945
0.0247221
0.0113259
0.0190946
0.0187126
0.0179781
0.0467923
0.0534618
0.0614187
0.0100444
0.0546339
0.0725147
0.0440402
0.0602591
0.00069192
0.0146279
0.0270423
0.0234627
0.0154972
0.0199503
0.0340809
0.0158777
0.0132732
0.0430763
0.00998915
0.0451108
0.0355511
0.0360212
0.0778374
0.0308232
0.118245
0.139079
0.091006
0.0746702
0.0589469
0.125318
0.107125
0.0931727
0.0292477
0.0333239
0.00833664
0.0109177
0.00521726
0.00561046
0.0118126
0.0170328
0.0481616
0.0249216
0.0342707
0.0374638
0.0148189
0.00795536
0.0371274
0.018839
0.0359062
0.035474
0.0284913
0.0475295
0.0512096
0.023943
0.0157535
0.00609846
0.0258459
0.00866502
0.00550151
0.0229012
0.0333118
0.0093458
0.0212215
0.0180675
0.0121142
0.0121493
0.0330976
0.0126757
0.0164852
0.0441102
0.0260314
0.00822769
0.00422917
0.00699768
0.0388719
0.0556421
0.0217118
0.0256051
0.0433321
0.0520992
0.0231859
0.0214691
0.0336006
0.0258584
0.0258911
0.0404421
0.043083
0.0513928
0.0271402
0.027066
0.0359271
0.052516
0.0235703
0.0231205
0.0355683
0.0202304
0.0274253
0.0286627
0.00645097
0.00915414
0.0100553
0.0121239
0.00702085
0.00859404
0.0126883
0.0255208
0.0363358
0.0286724
0.00974951
0.011336
0.00800626
0.0201558
0.0127887
0.00744283
0.00698567
0.00664743
0.00658309
0.00739332
0.0063383
0.00553851
0.00545726
0.00529922
0.00665994
0.0070103
0.00516034
0.00673621
0.00698063
0.000851711
0.000794479
0.0008085
0.000850374
0.00083468
0.000814593
0.000831649
0.000845391
0.000886374
0.000890351
0.0438985
0.0331019
0.0472356
0.0561627
0.0229085
0.021064
0.0536525
0.0642619
0.0290472
0.047558
0.0466886
0.0468777
0.0523561
0.0189189
0.051484
0.0460326
0.0116627
0.0892285
0.0958224
0.0857723
0.134212
0.125605
0.104417
0.144384
0.139104
0.146047
0.147168
0.0819486
0.0851201
0.108363
0.0968477
0.11606
0.132836
0.116372
0.0840299
0.101033
0.102212
0.000480271
0.000759543
0.000779783
0.000446705
0.000987425
0.0056863
0.00602404
0.0011336
0.000774918
0.000706503
0.00585991
0.00724437
0.00042837
0.00377105
0.00480163
0.00801596
0.112459
0.128217
0.179891
0.17731
0.0991472
0.150014
0.107225
0.141132
0.20088
0.194519
0.113004
0.114584
0.14833
0.0155531
0.0198965
0.017486
0.0157533
0.0131399
0.013877
0.0189678
0.0163747
0.0145562
0.0152081
0.0120605
0.0139943
0.0108169
0.027656
0.0240183
0.0139047
0.0292895
0.0269579
0.0134876
0.0123874
0.011832
0.0142113
0.000458413
5.83471e-05
0.00075006
0.000384765
0.00037187
0.00689699
0.0262768
0.00111459
0.00990922
0.0368178
0.0366446
0.0252101
0.0244629
0.0272218
0.00850005
0.0222733
0.0281872
0.0252173
0.0117659
0.0117746
0.0221956
0.0060556
0.0145165
0.0123191
0.0106971
0.0109606
0.0147872
0.00826726
0.0652737
0.0588271
0.0597506
0.0628702
0.0640001
0.0615809
0.0701046
0.0676438
0.0662661
0.0573605
0.0544073
0.0581107
0.0584626
0.0565461
0.0573701
0.0585105
0.0154409
0.0330387
0.0280953
0.0166602
0.0024271
0.00448286
0.00583542
0.00260233
0.00243947
0.00222267
0.0216509
0.0153569
0.0040048
0.0029126
0.00597243
0.00477693
0.021796
0.131935
0.0920915
0.119921
0.0242954
0.101175
0.0862444
0.0672577
0.0795099
0.0799484
0.0846597
0.106562
0.151756
0.153228
0.0871818
0.0966814
0.0991972
0.0988011
0.0899418
0.155808
0.00203376
0.00121172
0.000999247
0.000920973
0.00112407
0.000825677
0.00085123
0.000911749
0.000966911
0.0020179
0.00224747
0.00124667
0.00115543
0.000844496
0.0021597
0.0102465
0.0131624
0.0211427
0.0293246
0.0365177
0.0333906
0.0352715
0.0145394
0.0461909
0.059408
0.0557257
0.0280828
0.0616782
0.0616989
0.00582969
0.00922074
0.00381156
0.00576196
0.00547899
0.00738395
0.00313701
0.00209907
0.00742674
0.00174648
0.00394761
0.00190168
0.00215809
0.00148563
0.00146406
0.00165754
0.0300225
0.0319532
0.027067
0.0262485
0.0612464
0.0622304
0.0204692
0.0426526
0.0407902
0.0226903
0.0620321
0.0543077
0.065332
0.0503281
0.0548511
0.0622717
0.0657337
0.0652157
0.0639919
0.00489829
0.0145879
0.00507114
0.00998158
0.00528814
0.032478
0.0105774
0.0188684
0.0212845
0.0162939
0.00503529
0.00687433
0.006196
0.00592805
0.0233565
0.0202881
0.0169195
0.0365072
0.0269166
0.0315185
0.013932
0.0207884
0.0373162
0.0268514
0.0215541
0.0019261
0.00164786
0.0014566
0.00959117
0.000552161
0.000858421
0.00343003
0.0030138
0.00166459
0.00145984
0.00341155
0.00387018
0.00159545
0.00313232
0.00111982
0.000877522
0.000907753
0.00102673
0.00414958
0.00108424
0.00749749
0.00682571
0.00552705
0.0104365
0.00809255
0.00790604
0.0208549
0.00766313
0.020537
0.0235959
0.0185833
0.0131916
0.111954
0.158853
0.0135832
0.160028
0.0677219
0.101367
0.0685664
0.00981151
0.0114453
0.092975
0.0802177
0.076361
0.012966
0.0948193
0.0947004
0.0785079
0.095964
0.0868232
0.0813392
0.0870762
0.0881851
0.0853841
0.0799413
0.0863401
0.0860562
0.0966942
0.0150929
0.0885274
0.0170601
0.0857917
0.0860074
0.0847115
0.0800227
0.0837325
0.10815
0.0997806
0.104045
0.0193934
0.0358213
0.0101175
0.0195858
0.0133476
0.00810497
0.0023352
0.0130828
0.00640545
0.00551084
0.00353845
0.00393776
0.00418159
0.00493235
0.00636876
0.00349317
0.0625735
0.0425367
0.0653945
0.0711533
0.0687893
0.0684646
0.0718402
0.0773031
0.0706359
0.112731
0.0944077
0.122858
0.0524395
0.101394
0.0168082
0.100301
0.0140916
0.063202
0.0249268
0.0966339
0.0218045
0.113126
0.0745573
0.0834138
0.0919606
0.0721277
0.111483
0.0143514
0.104273
0.0473985
0.0782724
0.0842076
0.0157343
0.0796757
0.110846
0.100279
0.104414
0.0931099
0.0719929
0.153001
0.00993086
0.05416
0.0677481
0.0142617
0.0669629
0.0856217
0.0503637
0.11924
0.0152954
0.132377
0.0672479
0.0974582
0.0131238
0.0816124
0.056985
0.0990783
0.0589346
0.0933701
0.0148293
0.0946584
0.0621156
0.0664996
0.0833908
0.0884248
0.069107
0.0637237
0.0736352
0.0657815
0.0401503
0.0537379
0.0462502
0.069503
0.0698549
0.0289017
0.0332846
0.0349081
0.0615075
0.0738401
0.0466406
0.0534852
0.0344304
0.0646518
0.0662481
0.0192205
0.0214265
0.010859
0.00888295
0.0100702
0.011542
0.0258279
0.024481
0.0123364
0.0160156
0.0113754
0.0698871
0.0833239
0.0542765
0.000912309
0.000903043
0.000916117
0.000963313
0.000909435
0.000878438
0.00319685
0.00363289
0.00546904
0.00288521
0.000130565
0.000994572
0.00137839
0.000812641
0.00254132
0.00235955
0.00716834
0.00244861
0.00056747
0.000684241
0.026495
0.0418903
0.0428892
0.0328683
0.0194287
0.0255535
0.0196774
0.00982711
0.0369648
0.0494458
0.0401919
0.0150761
0.0176576
0.0114972
0.0236077
0.0225355
0.0277837
0.0284174
0.0253762
0.00537128
0.00284941
0.00409746
0.00359135
0.03311
0.0336262
0.0161552
0.0218799
0.00828311
0.0041946
0.0226245
0.00903726
0.00499276
0.0277464
0.0374443
0.0199661
0.0155053
0.0205696
0.0175289
0.0208999
0.0188825
0.0174002
0.0308099
0.0228218
0.0309962
0.0866877
0.0857286
0.0866716
0.0942552
0.106042
0.0622121
0.053014
0.0552472
0.0512579
0.0855905
0.0665076
0.0299472
0.018925
0.0483599
0.0507959
0.0433348
0.0505849
0.0456158
0.0284119
0.0459828
0.0436353
0.0626217
0.0655708
0.0793315
0.0745879
0.0533404
0.0689581
0.0591417
0.0522681
0.0613171
0.000961208
0.000974172
0.00102936
0.00114877
0.000998224
0.000979172
0.00166081
0.000964448
0.00109375
0.000757633
0.000973318
0.000948214
0.0010174
0.0010414
0.00110094
0.00110482
0.00107262
0.00101003
0.000998619
0.00103562
0.091163
0.104563
0.0768136
0.0998701
0.073512
0.0783915
0.0437946
0.0617954
0.0936893
0.0806107
0.0107905
0.101018
0.0522462
0.0526473
0.0816063
0.0759669
0.0107525
0.083558
0.013352
0.0741113
0.000716049
0.0011885
0.00132994
0.000983404
0.000885727
0.00094434
0.00101552
0.000990196
0.00104062
0.000994163
0.00093963
0.00106823
0.00105234
0.000771179
0.00106379
0.000945404
0.00141917
0.149532
0.0877575
0.137971
0.0126893
0.0883508
0.104206
0.0918538
0.109079
0.0188226
0.10605
0.239987
0.0725153
0.000989135
0.000905559
0.000593764
0.000285031
0.000873314
0.000720595
0.000705265
0.000493464
0.000353287
0.000899885
0.000702049
0.000374323
0.00443655
1.94377e-05
0.00169807
8.07119e-05
0.00241838
0.00812312
7.19469e-05
0.00501726
0.0071045
0.0284975
0.0262062
0.00112499
0.00188215
0.0395218
0.0299659
0.0419205
0.00184618
0.00398231
0.00631815
0.00141823
0.00315815
0.00377536
0.00140938
0.0122839
0.00363454
0.00546427
0.00179596
0.0107112
0.0289351
0.00776722
0.0130795
0.0186299
0.0570897
0.00216342
0.0031841
0.043525
0.0658073
0.0076073
0.00490692
0.0192115
0.0409536
0.0135115
0.0237106
0.0293352
0.0311435
0.0176294
0.0141438
0.0327654
0.0274668
0.024423
0.0122153
0.00260078
0.0226531
0.0105694
0.00987128
0.00355102
0.00585006
0.00880157
0.0108182
0.0177737
0.000842125
0.00161057
0.000575994
0.00115977
0.0226178
0.0214996
0.00321706
0.000416731
0.00209272
0.0131563
0.0214743
0.0214581
0.00158083
0.000495193
0.000718333
0.0188234
0.010847
0.0630586
0.0514727
0.0173873
0.0572879
0.0450873
0.0330673
0.0162337
0.00276488
0.000172949
0.00209119
0.00745935
0.000741563
0.000960241
0.000971132
0.000443351
0.00148453
0.000961404
0.000933482
0.000978657
0.000975889
0.000569416
0.000556271
0.000891176
0.000912026
0.00103644
0.00077821
0.00074392
0.00103903
0.000832129
0.0137162
0.0102828
0.0111876
0.0168578
0.0109942
0.0336276
0.049912
0.0143471
0.0257823
0.031654
0.0208095
0.0318576
0.0266804
0.0177321
0.0409766
0.0640304
0.0263306
0.0761027
0.0604172
0.0570981
0.0405334
0.0144173
0.0186204
0.0554877
0.0529004
0.0290801
0.0287081
0.0296194
0.0167457
0.0210213
0.0311941
0.0202705
0.0182113
0.0255312
0.0156476
0.00994615
0.0264424
0.0370799
0.0268445
0.0263525
0.0319421
0.0323379
0.0310988
0.0392028
0.0410045
0.0285126
0.0243534
0.0265918
0.0490029
0.0313392
0.038882
0.0412083
0.0730971
0.0474322
0.029837
0.0294982
0.0859677
0.0798396
0.0815493
0.0871963
0.101215
0.0940712
0.102724
0.125927
0.0902493
0.126871
0.0140571
0.0870213
0.0833069
0.0883228
0.0984981
0.102961
0.0871723
0.107222
0.0192207
0.0846857
0.096672
0.0207123
0.100999
0.0202464
0.0947188
0.0918926
0.0834321
0.0769389
0.0179753
0.101193
0.0908847
0.0620406
0.0752435
0.105592
0.0672626
0.095861
0.0932384
0.0656659
0.0630039
0.056649
0.103844
0.127841
0.0974063
0.113928
0.0671313
0.0817503
0.0753947
0.0692961
0.100256
0.0837916
0.0837415
0.0747148
0.0841524
0.0785642
0.107548
0.0235058
0.0834689
0.0800294
0.0853821
0.0182214
0.0605277
0.0876658
0.0668906
0.115472
0.0468413
0.0522106
0.0565928
0.0873968
0.0778047
0.13164
0.0934608
0.0874631
0.0506138
0.0699353
0.099627
0.0702655
0.0106504
0.00990825
0.0677695
0.0717665
0.0737946
0.0137504
0.106278
0.0778902
0.0861094
0.120258
0.107389
0.0113395
0.0751906
0.0712685
0.0630811
0.097624
0.095711
0.0722175
0.0139143
0.0897364
0.097302
0.0893236
0.0632164
0.107398
0.125642
0.0654342
0.064201
0.104021
0.0910289
0.0806915
0.0114343
0.117471
0.0833629
0.0694264
0.0687643
0.084943
0.0730312
0.082943
0.0805537
0.0638396
0.0810235
0.0772323
0.0726756
0.0660478
0.08816
0.057661
0.0563925
0.0748312
0.0724556
0.0492279
0.0552517
0.0664865
0.0518902
0.05141
0.0170663
0.0152625
0.0238541
0.022323
0.0213739
0.0276609
0.0141099
0.0107887
0.0203864
0.0197808
0.0155078
0.0393041
0.0223622
0.0242594
0.0233578
0.0336256
0.0190356
0.02892
0.0257773
0.0392423
0.0334948
0.031337
0.0240244
0.0195585
0.0174351
0.0171924
0.0140333
0.00601086
0.0033303
0.0136811
0.0150624
0.00186333
0.00143334
0.0104424
0.0121055
0.000914413
0.0057968
0.00347872
0.00663045
0.00544838
0.0871817
0.0723452
0.0648612
0.0730458
0.0660832
0.0727276
0.105239
0.0830464
0.0721802
0.0907581
0.0671688
0.0712339
0.0863406
0.0860494
0.1209
0.0916428
0.101564
0.0313427
0.00624222
0.0346808
0.0879766
0.0857265
0.00799178
0.0240974
0.0216054
0.00371453
0.0565523
0.0756215
0.0924055
0.0427515
0.041771
0.0865702
0.10078
0.0323151
0.0336539
0.0348651
0.0339887
0.04067
0.0436246
0.0305694
0.0943575
0.0980827
0.0414407
0.0371973
0.0548182
0.0850463
0.0928562
0.0850425
0.0961683
0.0867812
0.0957759
0.0802174
0.0147147
0.0961124
0.013524
0.0722571
0.0846688
0.0684006
0.0148351
0.0129467
0.0146126
0.0119812
0.00395436
0.0110656
0.00667383
0.00727885
0.0140522
0.0156693
0.0147911
0.012734
0.00974125
0.0131703
0.0403358
0.0517264
0.0314832
0.0371102
0.0573844
0.0355319
0.0357326
0.058651
0.0774525
0.0683029
0.0867833
0.0451319
0.0485529
0.063103
0.0281857
0.070689
0.0555231
0.0229534
0.0339482
0.137077
0.038553
0.157542
0.178376
0.0613446
0.0815993
0.0915187
0.145712
0.162082
0.131644
0.142179
0.218643
0.19581
0.147172
0.00144403
0.00169477
0.000972165
0.00119177
0.00128577
0.00111236
0.00119089
0.00113331
0.000940379
0.00089431
0.0926789
0.011875
0.0865007
0.0146081
0.0543668
0.0498161
0.0413595
0.060513
0.0736179
0.0739105
0.085956
0.0927551
0.0872441
0.0473208
0.0501187
0.0248138
0.0741162
0.0859586
0.0466972
0.0496933
0.0432253
0.0464351
0.0665857
0.0519116
0.0599942
0.0530002
0.0525324
0.0169793
0.0510778
0.0418861
0.0434271
0.0156939
0.0453711
0.0150641
0.0561609
0.0344985
0.0350476
0.0589174
0.0530552
0.0426894
0.000870434
0.000870564
0.000873595
0.000873678
0.00087243
0.000868986
0.000873772
0.000871282
0.000866707
0.000865631
0.000876212
0.000871014
0.000868076
0.00086944
0.000877892
0.000886985
0.000872106
0.000877123
0.000867267
0.112314
0.10917
0.0790485
0.0983792
0.0619441
0.057544
0.0926377
0.104776
0.0617931
0.108629
0.0767775
0.107112
0.103696
0.0629029
0.114906
0.0977689
0.104704
0.0433174
0.000947961
0.000964795
0.000971615
0.000934877
0.000953613
0.000970993
0.000977154
0.000977701
0.000965975
0.0010287
0.000994192
0.000981937
0.000994982
0.00100983
0.00102787
0.00102215
0.000857825
0.000843331
0.000841702
0.000864569
0.000878949
0.000858882
0.000851621
0.000856984
0.000826817
0.000825564
0.000872809
0.000832994
0.00087289
0.000844217
0.00087917
0.000853277
0.000853823
0.000853164
0.000876955
0.000860395
0.000851481
0.000888525
0.000869452
0.000866184
0.000845056
0.000896756
0.000899693
0.000864325
0.000877665
0.000975673
0.000852997
0.000926747
0.000887981
0.000376924
0.000860346
0.000898541
0.000869465
0.0008981
0.000911338
0.000751139
0.000872437
0.000858626
0.000845599
0.000705967
0.000886678
0.000890777
0.000885067
0.000879677
0.00087981
0.000880771
0.000880587
0.000901402
0.000893171
0.000886547
0.000890206
0.000890889
0.000883529
0.000874684
0.000886694
0.000885801
0.000899598
0.000889637
0.000896472
0.000892862
0.0816419
0.0812103
0.0792669
0.0581161
0.0694011
0.0642793
0.0779848
0.0727759
0.0749106
0.0493044
0.0495534
0.0717824
0.0670462
0.0708771
0.0766309
0.095698
0.066969
0.0824133
0.0841438
0.0901759
0.0965178
0.0764983
0.0866509
0.088339
0.0895791
0.0939376
0.0997783
0.0896237
0.0536822
0.0523364
0.0514471
0.0838326
0.0927668
0.0009088
0.000909162
0.000896552
0.000946905
0.000913179
0.000909622
0.000862998
0.000886344
0.000887717
0.000878846
0.00088277
0.000896408
0.00089739
0.000893503
0.000877416
0.027732
0.0200482
0.0189524
0.0192256
0.0343608
0.031722
0.0317222
0.0354455
0.035947
0.000882243
0.000888947
0.000882797
0.000881771
0.000893107
0.000881915
0.000880698
0.00088679
0.000885855
0.000873387
0.000870061
0.000854156
0.000868463
0.000885967
0.000880872
0.000868573
0.000845455
0.000854632
0.000897053
0.000885423
0.000884414
0.000834787
0.000720903
0.00109931
0.000639377
0.000760066
0.00111136
0.00202443
0.000856482
0.000703232
0.000510648
0.000722706
0.000580994
0.000764887
0.000836732
0.00049191
0.000661794
0.000848178
0.000819798
0.00169718
0.00085953
0.00242038
0.000820596
0.000839303
0.000787963
0.000903598
0.000957586
0.000871416
0.000905364
0.000935723
0.00087153
0.000838917
0.000803779
0.000808513
0.000803399
0.00090082
0.000889138
0.000930395
0.0009212
0.000885375
0.000884204
0.000888597
0.000865265
0.000930176
0.000810295
0.000900613
0.000933976
0.00080509
0.00525804
0.00979432
0.00800258
0.00632931
0.00214029
0.00496451
5.42463e-05
0.00101547
0.00758471
0.00157887
0.00863465
0.00542207
0.00455851
0.000904432
0.00133609
0.00344122
0.00147594
0.00184361
0.000708181
0.00152903
0.00176058
0.00190152
0.00138606
0.00339447
0.00154913
0.00196315
0.00207647
0.0021429
0.00201605
0.00207141
0.00224241
0.00171784
0.00171659
0.00538518
0.00261949
0.00350883
0.00521561
0.00243021
0.00327582
0.00311554
0.00296012
0.00251816
0.00363562
0.00244389
0.00088618
0.000884545
0.000966639
0.000880696
0.000881301
0.0010483
0.000906251
0.000894225
0.00087859
0.000895472
0.00106613
0.00089024
0.000851822
0.000847935
0.000859917
0.000857346
0.000816381
0.000855715
0.000861875
0.000861956
0.000850793
0.000820963
0.00086785
0.000835261
0.000859645
0.00085844
0.0317446
0.0195531
0.0272671
0.0300691
0.0274038
0.0217828
0.0256234
0.0266369
0.0266354
0.0330072
0.0312143
0.0294568
0.0321108
0.00560123
0.00385305
0.00458252
0.00385212
0.00339581
0.00558424
0.00130674
0.00817849
0.00362982
0.00352928
0.00333201
0.00202409
0.0010947
0.000900431
0.00308153
0.00616677
0.00484216
0.00870966
0.00706352
0.0128031
0.00425693
0.00167965
0.0173738
0.0147969
0.0334313
0.0103562
0.0161259
0.00893869
0.00393894
0.0139032
0.0053844
0.00425006
0.00771445
0.004452
0.00773635
0.00381054
0.0115775
0.00490623
0.00247261
0.00380498
0.0102983
0.00413101
0.00218839
0.00435281
0.00492981
0.0405572
0.0462179
0.0498714
0.044006
0.0509569
0.0487371
0.051866
0.0448338
0.0480939
0.0519129
0.0456954
0.000837657
0.000828938
0.000836596
0.000838482
0.00083357
0.000836527
0.000836074
0.000832441
0.000833271
0.000832307
0.00083594
0.000838427
0.000833651
0.000417946
0.00145277
1.20243e-05
0.00477316
0.000264759
0.00116472
0.000762543
0.000732251
0.00113113
0.00138162
0.000972254
0.00108545
0.00109361
0.00102973
0.00172747
0.000934318
0.00106746
0.00104275
0.00152652
0.000940941
0.000944548
0.000972875
0.000732897
0.000776243
0.000656167
0.00046606
0.000997675
0.000691039
0.000676122
0.000910713
0.00066815
0.00078169
0.000784783
0.000842248
0.000846937
0.000812969
0.000767139
0.000839232
0.000828843
0.000855076
0.000840157
0.000854661
0.000841219
0.000865009
0.000859955
0.000839881
0.000829093
0.000841659
0.000845931
0.000936003
0.000854776
0.000863142
0.000927904
0.000924462
0.000939335
0.000914066
0.000913576
0.000933289
0.000942408
0.00092579
0.000935445
0.000930403
0.000917641
0.000935244
0.000913894
0.00026606
0.00122746
0.00114744
0.000667308
0.00089331
0.00089461
0.000874746
0.000956929
0.000913985
0.000905072
0.000913628
0.000917193
0.00045095
0.00089074
0.000941351
0.000733281
0.00086751
0.00067742
0.00131266
0.00152624
0.00090315
0.00330565
0.00510528
0.00310459
0.00286712
0.00756939
0.00624867
0.00478231
0.00855993
0.0108238
0.00856582
0.00919908
0.0124364
0.00669787
0.00652725
0.0100142
0.0109992
0.00773076
0.0115477
0.0418004
0.107537
0.0321475
0.0511445
0.0398331
0.0849718
0.0159428
0.0166062
0.0857493
0.0148199
0.0626729
0.117738
0.069786
0.058941
0.0704552
0.0512617
0.0106444
0.0403414
0.0690389
0.022465
0.0898738
0.066501
0.0315043
0.0115868
0.0362605
0.0737945
0.0796033
0.0030464
0.0080299
0.00879497
2.73746e-05
0.00378883
0.0761301
0.0293244
0.0636733
0.00257948
0.113677
0.0188046
0.0884714
0.165298
0.1181
0.0679918
0.0839602
0.17436
0.0606482
0.118577
0.0371076
0.0623698
0.0521633
0.0592199
0.0550908
0.0480902
0.0234524
0.0294841
0.0581773
0.0572663
0.0209515
0.0203483
0.0481696
0.0622331
0.0322836
0.0230412
0.0338221
0.0359473
0.0357364
0.00845726
0.0119947
0.0167706
0.0100059
0.00784386
0.0105648
0.00493285
0.0116115
0.00436955
0.00981523
0.016806
0.0153489
0.0172497
0.0100575
0.0125015
0.00972188
0.0141424
0.0086362
0.0209907
0.0162516
0.0613918
0.0713531
0.0421119
0.0397024
0.0439807
0.0331096
0.0372081
0.057788
0.0855681
0.0774014
0.0197483
0.0616308
0.089071
0.0613265
0.00865004
0.00120175
0.0039437
0.00110466
0.000816417
0.000862963
0.00645763
0.00135462
0.00602763
0.00678299
0.00759692
0.00509985
0.00105917
0.000258439
0.00090863
0.00176138
0.00344196
0.00334688
0.0612652
0.0766773
0.0742424
0.0811327
0.0902307
0.0735388
0.109504
0.0206497
0.103744
0.0672499
0.040065
0.0286134
0.0398393
0.0525747
0.0716064
0.0275211
0.0865424
0.0698594
0.031636
0.0480332
0.00255603
0.0316015
0.000773545
0.000814769
0.000572488
0.000593597
0.0007914
0.000797124
0.000796357
0.000740726
0.000777019
0.000857708
0.000756712
0.000780205
0.000731981
0.000715107
0.000724276
0.000687697
0.000736625
0.000792794
0.00077906
0.000729773
0.0014362
0.00423765
0.0111878
0.000916087
0.0002668
0.000629152
0.0119349
0.000152155
0.00341461
0.000802301
0.000809683
0.00484163
0.000756785
0.000795063
0.00526798
0.10468
0.12669
0.105761
0.170756
0.134312
0.204791
0.19642
0.100639
0.00346176
0.00244094
0.00793587
0.00630035
0.00664053
0.00204026
0.0035368
0.0016667
0.0069058
0.00509283
0.00176807
0.00493223
0.0229816
0.0322934
0.0983158
0.0672091
0.0261331
0.0397872
0.0954119
0.0964816
0.0914164
0.0920285
0.0144331
0.0902517
0.0936538
0.0188278
0.0725783
0.0453109
0.0463108
0.0583702
0.000794878
0.00168081
0.00197695
0.00244071
0.00220705
0.000772045
0.000995878
0.00169087
0.00163782
0.00196614
0.00294477
0.00127793
0.00118442
0.00223245
0.00109277
0.00257305
0.00297403
0.00132189
0.00852044
0.0100118
0.0266103
0.0318121
0.0180102
0.0307917
0.0110177
0.012594
0.0145426
0.0325657
0.0196294
0.0132776
0.0387417
0.0141134
0.00751441
0.0205353
0.0258661
0.0129565
0.0101483
0.0283916
0.00718724
0.0115235
0.000919312
0.000912768
0.00092534
0.000937037
0.000917331
0.000928822
0.000922211
0.000910972
0.000919304
0.00092703
0.000933124
0.000926693
0.000926955
0.000921254
0.000925915
0.000919445
0.265964
0.262902
0.268161
0.280791
0.245443
0.229558
0.160482
0.14335
0.131242
0.133221
0.126247
0.130208
0.205351
0.130359
0.134131
0.122371
0.127554
0.139446
0.0256273
0.0181433
0.0158139
0.0120973
0.0108746
0.00919119
0.00862005
0.00962164
0.0368214
0.0296119
0.0122444
0.00907694
0.00961104
0.0107658
0.0243998
0.0145623
0.0020986
0.000750418
0.00072647
0.000733579
0.00110274
0.000775643
0.000782919
0.000798829
0.000597252
0.000563311
0.00297517
0.00222492
0.00389697
0.000190812
0.000706678
0.000595395
0.000650157
0.000724531
0.00168985
0.00328095
0.0527609
0.0530535
0.049295
0.0316271
0.0107215
0.0316753
0.00340191
0.0279522
0.0326508
0.0432891
0.0119727
0.0103433
0.0208859
0.0238238
0.0137007
0.015433
0.0117078
0.00917408
0.00762786
0.0152148
0.0097801
0.0138895
0.00303846
0.0125402
0.00383703
0.00248886
0.00326082
0.002281
0.066995
0.0547292