/*--------------------------------*- C++ -*----------------------------------*\
  =========                 |
  \\      /  F ield         | OpenFOAM: The Open Source CFD Toolbox
   \\    /   O peration     | Website:  https://openfoam.org
    \\  /    A nd           | Version:  10
     \\/     M anipulation  |
\*---------------------------------------------------------------------------*/
FoamFile
{
    format      ascii;
    class       volScalarField;
    location    "6";
    object      omega;
}
// * * * * * * * * * * * * * * * * * * * * * * * * * * * * * * * * * * * * * //

dimensions      [0 0 -1 0 0 0 0];

internalField   nonuniform List<scalar> 
75457
(
31.8756
32.3474
25.6029
21.333
24.9265
28.9391
27.0888
34.5318
17.1995
16.9375
15.936
20.712
20.2579
17.6552
2.05401
2.02853
1.85361
2.12058
2.02201
1.84076
1.97059
1.93834
2.10947
2.08948
2.03544
2.21777
2.21013
2.00474
2.11542
1.99211
1.93289
2.22939
2.2981
1.9169
1.90595
1.95791
1.91463
2.40769
2.32533
1.93747
1.9885
1.92716
1.90931
2.60599
2.89254
2.3393
2.24606
2.59721
6.07596
3.41753
4.89376
5.5542
13.6486
4.66823
3.72476
3.93076
7.7954
8.72209
7.86494
15.1287
11.928
6.53174
8.73803
7.20064
7.0784
8.00359
6.68836
8.29543
8.49786
13.942
8.20672
14.535
7.76445
7.7512
8.07243
7.15416
7.60367
13.3345
10.1706
7.65792
15.8793
11.2332
10.2919
7.72134
6.89017
6.78441
7.32279
7.55858
11.2406
13.4439
7.45473
7.21139
10.7133
6.83657
5.65591
3.35601
3.65132
3.88528
23.8568
6.80143
8.34891
10.951
22.1299
20.0091
39.5972
41.1058
20.8285
18.6949
20.4569
7.25754
5.63436
15.721
15.6783
13.4156
5.31967
9.85031
22.1165
9.21229
8.60593
24.218
6.03261
6.74995
6.69425
6.40747
7.59823
7.57764
15.3634
6.45766
11.4352
7.19487
6.85508
6.90654
6.54418
6.06562
3.31992
15.2944
7.0288
5.44946
5.71644
24.6263
4.40462
5.38412
6.63388
4.33422
4.54951
5.96325
7.10002
8.2241
17.9049
5.06365
31.9508
9.30995
5.10334
4.13753
9.18036
12.8608
4.72402
22.5306
5.31057
7.02626
26.9784
5.36948
8.07932
6.0369
6.25946
6.5295
6.2235
6.39626
5.78408
5.78251
6.06516
6.29201
6.0162
6.14052
5.95343
5.81378
8.66251
7.90566
7.57297
11.5906
4.80437
22.3351
3.86643
12.0584
28.0079
5.16711
3.78745
9.57161
17.7996
39.31
7.66361
7.70758
8.41945
13.1754
6.27454
25.562
4.01204
4.60822
4.07044
4.41031
3.9238
7.5118
8.71468
12.9392
6.29331
7.17656
13.0119
11.6288
12.5089
12.634
11.0631
11.3416
23.4506
26.1718
9.50345
10.9312
25.0792
10.9638
27.4492
25.5993
26.2576
8.57784
12.104
23.2329
10.5809
11.3782
27.7238
13.2262
7.84499
20.2574
5.05923
4.9564
19.7845
8.35802
9.69871
7.18664
9.28974
4.45071
4.72853
4.98094
5.26959
8.9757
21.5401
7.12104
16.5407
10.1744
6.88967
7.26838
10.9021
24.7053
10.4297
21.8047
9.9034
19.7366
7.90843
14.0825
6.45482
4.77656
5.53772
3.34147
3.61569
4.1342
4.377
6.30588
9.86849
18.0447
11.8788
30.1837
17.1452
19.8167
26.5312
16.9348
5.77584
6.10192
9.93614
5.97366
10.2818
11.4086
17.3519
10.1605
9.45648
16.1841
9.69568
15.2813
7.43832
14.6908
6.77322
4.19117
4.19453
5.46535
5.05964
5.46559
4.80404
20.8194
15.4329
23.7092
15.9665
8.26769
8.43608
22.2312
8.00743
9.71606
25.7028
4.25411
4.17233
2.8518
21.7116
4.40506
2.7621
21.7116
1.50715
2.94826
5.9689
2.66046
12.774
13.3361
13.6383
13.259
13.0288
22.387
12.0791
13.5799
10.4751
11.2321
22.387
4.46953
4.56487
5.0979
7.96311
12.7268
10.7711
9.55489
11.0627
25.4708
5.5992
5.76324
8.60497
7.79441
30.7316
9.75612
8.27199
29.2837
4.56237
6.61966
18.5105
6.32112
11.3741
4.69388
18.5105
8.89379
5.72442
8.30799
8.04048
4.69189
9.55579
8.0762
10.0695
28.1942
8.29236
5.52371
15.7454
22.5528
16.222
21.9442
4.02876
3.82669
4.94752
4.70251
6.95246
5.93234
10.3188
5.76681
6.3525
8.13846
21.8559
11.8637
10.742
7.17019
17.6445
6.37645
9.66021
8.10603
19.3078
18.9284
18.0073
4.16979
8.60737
8.70569
4.8925
4.32646
8.24396
4.52218
4.57699
4.42005
4.41032
4.57894
4.59565
4.50963
4.5813
4.60333
4.60765
4.52244
4.43078
4.52228
4.48665
4.44674
4.56343
4.43981
4.4168
4.36719
4.36568
4.44507
4.38124
4.46322
4.39518
4.49579
4.47747
4.36674
4.42961
4.41409
4.46286
4.44849
4.26113
4.324
4.33549
4.37289
4.31978
4.35145
4.38455
4.43569
4.26513
4.30321
4.26663
4.26221
4.32225
4.36804
4.33582
4.41732
4.3494
4.37462
4.33875
4.37508
4.33168
4.36152
3.67867
2.86819
2.88775
2.87689
2.86918
3.49422
2.87507
2.82189
2.74372
3.7608
2.69833
2.7825
2.76578
2.81268
2.64093
3.37818
28.7159
20.0639
18.9396
19.9219
12.7339
13.0873
14.3995
17.0718
12.2633
12.8591
34.1442
32.4236
27.024
19.5067
13.5407
10.3724
3.56043
3.50354
3.76689
3.9081
3.69911
3.61712
3.54911
3.50262
3.59151
3.62081
3.65521
3.8474
3.81895
3.59366
4.68289
3.7239
3.64034
3.64486
4.55587
4.60969
4.5742
4.50444
4.4775
4.51381
4.52873
4.54181
4.53934
4.52494
4.55476
4.62575
4.54324
4.58223
4.60511
4.6228
5.82934
5.59526
5.91617
5.59045
5.36332
6.01585
6.35902
6.03403
5.8628
6.03384
5.87219
5.76049
6.0152
5.73871
5.80811
6.24463
6.33598
4.7006
4.86094
4.66899
4.6985
4.62055
4.58931
4.6718
4.8012
4.60012
4.49726
4.71328
4.55268
4.49101
4.50356
4.56692
4.43921
4.61113
4.1487
3.33807
3.96832
5.15939
2.68295
4.44291
2.87855
4.00074
2.81469
2.77862
3.64842
5.08684
4.00723
3.20567
3.42794
2.86811
4.8186
4.895
2.03414
2.06142
2.13353
2.37498
1.93018
2.49061
2.02629
2.06307
2.08277
2.6666
2.24633
2.0995
2.17904
1.96888
2.20392
2.17832
2.31357
2.161
2.38313
2.35758
2.32217
2.25136
2.18987
2.36576
2.38972
2.36404
2.22751
2.1219
2.15683
2.31981
2.19906
2.28549
4.25617
4.26874
4.29275
4.51472
4.57251
4.28884
4.28826
4.49853
4.42322
4.47657
4.26755
4.5487
3.56545
3.03833
3.89542
2.96161
3.79685
3.44058
3.7517
3.73741
3.71334
2.76131
2.66306
2.77813
2.93936
2.90057
2.77941
2.92667
1.85889
2.26065
1.82804
2.15461
2.94097
2.6558
3.48169
2.63125
2.51617
2.18266
2.04377
1.89263
3.24953
2.01392
2.09182
2.26487
3.64009
3.61972
3.64178
3.67623
3.8007
3.69096
3.63991
3.59461
3.58076
3.67035
3.70145
3.67197
3.68898
3.75702
3.75998
3.66904
3.63389
3.70728
3.583
2.20701
2.15087
2.00702
2.43654
2.14443
2.31787
2.27668
2.04529
2.12444
1.96299
2.32609
2.22952
2.12839
2.13983
2.45748
2.34256
2.26544
2.45854
2.25175
2.35227
2.10604
2.10658
2.17501
2.05226
2.04675
2.33668
2.16681
2.10265
2.14869
2.00677
2.02067
2.12487
5.09079
6.31692
6.4097
3.9849
3.97972
5.47817
4.77106
3.38921
3.70423
6.92973
5.60494
6.15006
5.88226
7.08241
7.23742
6.72531
7.51668
6.3112
6.82215
5.98261
6.0917
7.45457
9.00245
8.96873
8.31956
8.94407
8.93632
7.70445
6.66209
7.49598
7.38995
7.17228
2.72633
2.76214
2.99486
2.85646
2.86082
2.65606
2.79198
2.79818
2.77418
3.4742
3.83591
4.31621
2.59889
3.79146
5.11379
3.5033
4.36756
1.8437
2.61698
3.89896
5.21591
2.76752
2.98829
8.1796
5.72446
3.29822
6.31679
3.52181
4.14223
3.51217
3.80782
5.57034
5.73638
6.95384
7.81222
7.74734
8.3848
6.31822
8.12222
7.19705
7.97989
2.03838
2.10407
1.78699
1.81324
1.83392
1.80358
1.90541
1.9464
2.46953
1.96126
2.17347
2.22696
1.81299
1.83213
2.31018
1.90165
2.17236
2.14889
2.06091
2.50594
2.57033
1.98159
2.41473
2.18551
2.55117
2.19902
2.1385
2.68742
2.60789
2.07951
2.35213
2.49489
2.3226
2.33508
2.68106
2.0907
2.22707
2.86364
2.42811
2.06565
1.93722
1.95886
2.638
3.39694
2.0819
2.18244
2.78629
3.15033
2.10577
2.06559
2.39648
2.1151
2.12934
2.61647
2.70571
3.10134
2.17138
2.14598
2.3465
3.138
2.10873
2.11433
2.38082
2.03989
3.50683
4.7109
1.98492
2.10172
2.25642
2.45235
2.0673
2.15108
2.468
3.01724
3.60773
3.2369
2.19125
2.13527
2.04196
2.3873
2.15804
2.61678
2.59596
2.4219
2.48105
2.46343
2.35919
2.30374
2.44206
2.43841
2.50651
2.47927
2.30928
2.5237
2.55628
4.45315
4.73954
4.84041
4.53551
4.69175
4.74061
4.85044
4.61291
4.7038
4.81676
3.03981
2.66289
3.05052
3.42001
2.48259
2.45674
3.3671
4.07945
2.5708
3.33035
3.17107
3.17975
3.59954
2.53915
3.47235
3.18592
2.44855
5.60463
5.88356
5.72969
6.02612
5.6932
5.39919
6.06425
5.78008
5.58437
5.51806
5.69078
5.60072
5.83948
5.54015
5.92397
5.43072
5.49965
5.30806
5.51293
5.3267
4.76364
4.83055
4.74387
4.77156
5.02019
5.15792
5.60668
4.91501
4.90952
4.78933
5.48534
5.54095
4.74372
4.85813
5.09385
5.82639
11.0411
9.87994
9.05143
9.6372
12.1731
10.3914
11.8343
12.1492
11.1812
10.6713
11.7133
11.0753
11.2323
2.61038
2.79955
2.62954
2.54945
2.45341
2.49421
2.76399
2.64875
2.52192
2.56331
2.36937
2.57418
3.85173
4.26171
4.00196
3.89595
4.19774
4.11
3.76992
3.73845
3.70236
3.77302
3.79846
3.76711
3.85796
3.83041
3.92404
3.85641
4.03193
3.85523
3.85678
3.68409
3.66521
3.56689
3.56181
3.76203
2.74532
3.06278
3.54191
3.31741
2.66837
2.67484
3.17037
2.58457
2.88923
2.79022
2.63229
2.63647
2.84357
2.66803
4.47982
4.77483
5.00901
4.59476
4.45509
4.65281
4.28499
4.2167
4.60943
4.66114
5.16762
4.82715
5.76635
5.51079
5.56163
4.9487
4.50333
4.92107
4.6453
4.41268
4.40876
4.49498
4.42699
4.39922
4.42765
4.51873
4.59989
4.49381
4.57269
4.5826
4.81704
4.65662
13.643
12.7234
12.6576
12.6318
14.3037
12.7938
5.78859
6.27106
5.99052
6.36961
6.16535
6.8706
9.47313
11.6485
11.0029
8.40025
10.2727
10.4012
6.85376
11.0376
6.67575
7.63013
7.34507
7.07157
6.83442
7.15132
7.7346
7.37409
6.89105
7.30884
7.37621
7.05603
7.49059
6.96061
7.13028
4.99618
5.286
5.25222
5.26723
5.86836
6.21222
6.99316
5.9412
7.28977
7.71925
7.32636
6.51933
8.23179
8.74132
3.71662
4.10785
3.60164
3.7051
3.59299
3.78261
3.40986
3.22576
3.93584
3.45871
3.59858
3.21802
3.36547
3.20855
3.23619
3.18766
2.26355
2.30695
2.21362
2.2323
3.51035
3.59133
2.11034
2.80146
2.82874
2.07984
3.42129
3.26268
4.07823
3.15396
3.12745
3.68358
3.58689
4.32516
4.4577
2.65787
3.27767
2.98457
2.89405
2.75289
3.8884
3.11832
3.48022
3.69656
3.47896
2.58519
2.64166
2.86461
2.65375
3.68601
3.46195
2.76958
3.19294
2.91501
3.0445
2.6184
2.74331
3.17779
2.83518
2.74959
8.26669
7.19554
7.20895
8.13499
8.5227
7.55441
7.38855
7.58256
7.54988
7.47806
7.62028
7.45378
8.22423
7.99321
8.08037
8.3349
8.04664
7.84378
7.40812
7.86486
3.10714
3.06832
3.0317
3.00072
3.03403
3.19105
2.95229
3.03511
3.17084
3.04447
3.01273
3.00624
4.78681
6.98801
23.8359
5.40137
18.2604
6.3582
11.2713
20.4446
21.9565
5.14261
11.4006
14.0397
23.4639
6.60011
11.2345
3.96854
8.26006
5.24329
4.54885
7.8778
9.2386
7.2835
4.50221
3.81226
3.73442
11.9525
13.93
13.1007
14.6795
3.69476
3.85611
3.70268
3.55307
3.67986
5.43231
6.04763
5.03966
1.96959
2.24428
1.82685
1.9665
1.84253
1.80475
1.77595
1.82685
1.8002
1.79734
1.88118
1.83198
1.8267
1.81331
1.79494
1.79258
4.60605
4.20662
5.35318
5.21289
11.1195
9.1508
4.02337
6.42659
8.22408
7.51565
8.35972
7.39711
3.77327
11.5946
13.5706
9.65515
12.4206
4.51235
2.76859
9.59872
2.83759
8.43361
16.3784
4.78987
8.1121
4.12466
9.84976
18.5271
9.97964
2.76249
4.43311
5.20751
19.4448
4.51835
6.58641
8.042
12.5493
4.1629
8.05305
3.71435
21.2148
5.86135
7.104
25.4781
5.37438
8.48174
7.78128
7.61205
16.0207
5.56037
6.50389
11.0263
14.9935
4.4299
3.92746
8.53021
3.82233
8.66242
15.9388
8.47216
3.45095
3.844
14.7849
9.23175
3.80417
3.45682
4.29606
3.57913
2.49857
2.98292
2.65429
3.67081
3.80864
2.21494
2.35593
2.38688
3.37752
4.24135
2.74344
2.99531
2.35822
3.32072
3.47857
4.33359
3.67895
4.08468
4.12291
3.89772
3.93808
4.66944
2.79372
3.62766
4.26348
3.94337
5.93197
8.3684
5.2961
11.897
11.581
10.9883
10.7679
12.2787
10.6238
10.1929
10.7826
11.1157
11.0579
12.3981
12.9198
10.2094
10.438
10.818
11.2246
10.9148
12.3896
11.6198
10.8071
7.75289
9.72632
6.76631
6.61561
10.4174
10.5048
17.7299
15.6851
6.41388
6.7796
7.77426
10.003
11.1028
13.0636
7.80206
9.90697
6.43545
6.39313
7.21758
5.09905
4.50549
4.60255
4.05743
10.1385
14.3266
9.43641
11.4096
4.46098
4.3683
11.2262
7.50252
4.74365
6.01193
11.6016
7.56169
5.69229
10.6143
5.75768
9.98905
2.00325
2.01698
2.35138
2.07438
2.28928
8.84208
11.4679
5.01641
5.29086
3.26458
3.16892
2.4536
3.21417
2.92368
6.43551
2.88231
2.31787
2.04727
2.84835
6.20294
5.53542
5.53692
5.89408
4.9323
4.85695
5.85729
5.60687
5.35172
5.83445
6.42518
8.5755
7.61321
5.66657
6.07044
6.6527
24.4798
22.8328
24.048
26.0453
30.4411
27.4789
30.3346
43.4246
40.9906
36.5468
32.3045
31.6973
44.7021
33.7486
32.5178
31.2395
38.9006
38.7561
39.4779
29.3591
7.97636
9.56781
7.80427
10.0784
6.2441
6.65781
4.24094
5.25394
11.884
8.10351
16.9243
9.25469
4.66655
4.44055
14
10.9979
16.8808
8.75033
18.9224
6.52428
30.6425
37.5241
41.4739
55.8864
42.0927
29.829
24.6179
39.5063
47.1089
41.9995
45.3271
35.6065
62.5778
41.0427
79.0035
80.9885
55.2763
3.2113
11.7879
6.83293
31.3189
5.95506
5.72051
8.34677
7.57195
38.3881
7.38659
2.00934
20.6933
12.1267
11.5946
15.2048
14.5476
13.1317
11.6017
10.9382
10.6845
14.0182
15.1311
12.5931
12.9308
12.8444
14.1895
11.5777
12.8932
12.818
12.0132
15.4366
11.2198
11.331
5.80762
5.69812
5.49084
5.62864
6.32255
5.87249
6.30823
5.73773
5.51581
5.63714
5.59183
5.47378
5.41467
5.36643
5.83417
5.68122
5.59921
5.49933
4.8188
5.25422
4.80743
4.97855
5.0852
6.30339
4.77135
4.95031
6.07097
6.94805
5.12937
4.84599
5.07159
5.90266
5.15393
6.01573
6.44101
6.44001
6.0689
5.69754
6.55685
5.56682
6.34232
6.2271
6.34974
5.59827
6.23802
6.2189
6.25669
3.16526
3.23717
3.21151
3.3811
3.07136
3.03643
3.15425
3.14033
3.5446
3.71338
3.13687
3.1442
3.2026
3.33982
3.52173
3.4307
7.11874
7.17109
7.30694
7.11419
7.07987
8.1084
6.96631
7.06355
8.47189
7.27213
6.58467
6.41449
7.12017
7.85074
7.68636
7.21808
7.25704
21.8414
21.9961
16.7859
18.117
19.6364
21.9397
25.1954
25.5087
18.6393
19.7754
25.5634
30.1092
24.8715
26.6352
23.7611
25.1493
24.1292
7.52384
5.80763
5.44476
7.43857
5.08576
12.2409
19.7056
5.22528
10.7753
11.001
7.33321
9.87488
11.3889
5.36062
3.08634
10.0815
22.5995
5.6158
8.28507
6.79714
5.6397
4.64066
4.47014
6.87779
6.56702
5.28086
5.17173
4.9337
4.82158
4.78488
5.01255
4.6554
4.49734
4.86674
4.59877
4.6422
4.86759
5.2721
4.69334
4.69128
3.79035
3.35941
3.2213
3.60819
3.76764
3.18194
2.94351
3.09459
4.26816
3.30246
3.54671
3.69285
4.15426
3.5602
3.16633
3.11555
5.29364
4.32665
4.7135
5.5864
4.6479
4.17939
8.66394
5.65807
6.04405
6.01835
13.7368
7.96101
4.86714
8.78727
4.21842
7.07664
8.74199
13.497
15.9196
9.84332
14.1418
16.4011
10.5694
15.128
11.1071
7.79403
5.84565
4.51336
14.4106
9.64655
10.9405
2.96257
4.31539
11.2029
3.87664
10.1325
9.24555
3.74315
3.43098
3.22853
8.00652
5.38742
5.44259
5.49223
6.33727
5.51125
5.58967
6.06853
5.45762
5.65668
6.25484
5.74089
6.09842
8.19877
6.5892
8.96397
6.00944
6.64858
8.10856
9.08361
8.5597
8.1606
7.6171
5.50391
4.41093
4.50157
4.68708
8.38849
6.92223
7.2887
6.92228
6.48408
4.19077
6.17381
7.56607
7.62946
18.1626
17.6093
6.36633
6.43224
6.88636
20.7003
8.3921
12.0742
7.42939
3.29356
8.96156
14.6686
6.08122
4.78204
4.01316
9.57876
8.35893
14.1675
16.2288
6.639
9.03894
9.90162
4.11535
6.17336
5.86107
4.43207
4.41202
9.56487
8.74331
10.0542
15.7314
6.93125
10.2619
4.47337
4.18314
7.78879
4.33674
3.91694
3.79181
3.14615
3.88915
3.12035
3.20984
3.11142
4.2843
2.89771
2.84956
3.46721
3.36112
2.68944
2.83074
3.09843
2.73215
2.73638
1.96519
1.94037
2.05189
2.02689
2.01069
2.15583
1.90589
1.83179
2.00307
1.98335
1.85292
2.23161
2.02175
2.07413
2.00471
2.14659
1.95293
2.09607
2.06524
2.41629
2.29349
2.08581
2.43506
2.19699
2.17549
2.15289
1.91463
1.78995
1.75507
1.93711
2.03039
1.74244
1.7263
1.86667
1.88343
1.71462
1.7848
1.77612
1.78419
1.78126
6.32892
7.26262
8.67679
8.76489
8.18611
8.03173
6.67911
5.97937
8.44221
6.48644
6.66256
7.02554
6.3938
6.29916
8.16077
6.598
6.87798
3.93885
3.45417
3.9507
7.63
6.31135
3.45756
3.74833
3.73683
3.29867
4.61482
4.9135
6.97822
2.96259
2.88211
5.079
6.45016
2.48203
2.61899
2.61303
2.61566
2.85294
3.81315
2.77795
9.52563
7.33518
3.28904
3.07249
4.68237
5.56168
8.1278
5.95681
6.18582
7.04696
7.87043
14.9755
20.6761
10.5984
19.7788
4.3539
7.34927
4.1506
1.87083
1.8355
1.87074
1.8348
1.77532
1.87764
1.83353
1.81991
1.95658
2.02511
1.93238
1.8893
1.85381
1.91044
3.09419
3.08628
2.75608
2.73966
3.98896
2.53086
2.7072
3.66545
4.31857
3.69362
4.59725
3.35575
3.01019
3.8223
2.43161
9.29162
5.10775
19.3013
19.3013
3.27729
19.3013
8.12879
6.62261
11.3959
5.60248
7.80251
6.76474
5.84874
4.85491
7.19456
5.84055
5.53195
6.91124
20.389
24.2396
25.6147
20.3887
21.2782
21.4967
23.7094
19.6286
23.4724
19.5358
9.94825
10.6109
7.61462
11.7649
4.27219
3.88234
3.49042
4.77165
7.11491
8.70837
10.4041
9.96023
8.72873
3.67099
3.8426
2.76186
7.93091
9.45786
3.83797
3.73592
3.63012
4.03239
3.15582
4.52949
3.57854
4.11321
6.06576
12.2309
6.13018
3.3143
3.45123
12.2309
10.5817
12.2309
5.96919
3.02988
3.11535
4.67475
5.97022
4.64286
7.99184
7.86922
7.45892
8.00175
7.59169
7.28343
7.67036
7.53924
7.08805
7.44921
7.15539
7.49454
7.77611
7.52927
7.15572
6.78019
7.01873
6.73849
7.22453
7.74319
7.70887
7.29955
7.56609
7.37325
7.27376
6.73171
6.20078
6.3439
6.02183
7.31419
7.28451
8.12715
7.71183
6.0305
6.03637
6.31685
7.15443
29.2623
29.9938
24.9808
23.6201
38.8024
31.9773
36.712
30.9426
29.0102
45.8771
35.6828
37.5614
37.1947
44.0146
58.1769
55.9062
4.68003
4.88213
4.87776
4.66358
4.62528
4.66504
4.68729
4.60714
4.80944
4.80314
4.55407
4.71622
4.56453
5.4519
5.19247
5.49203
5.47146
5.39629
5.10552
5.76725
5.53862
5.72557
5.47855
5.63789
5.76057
5.35166
5.50356
5.37215
4.87827
4.95104
4.75104
4.82722
5.15155
5.0576
4.73308
4.76011
5.1066
4.91571
5.00917
5.03862
4.93261
4.95657
5.09328
5.26925
9.95496
9.90986
9.7246
9.10013
9.25269
9.61126
8.94063
8.78208
9.2238
9.36916
11.2129
11.0151
9.50925
9.18332
9.31889
9.39764
10.8509
9.74996
9.90915
9.72606
8.18524
7.96292
7.63851
7.3454
7.91812
7.78254
8.51524
7.89618
8.82923
6.68863
7.1004
8.57661
7.42618
8.10404
8.58977
9.45225
8.69696
8.60784
9.70679
9.83622
10.2889
9.06405
9.49741
10.5865
9.13718
11.4091
12.0106
11.3579
9.9314
9.03689
10.5517
12.4308
11.0765
12.8467
11.9851
12.1917
10.1511
13.5977
12.1908
11.1623
10.7188
11.5569
12.4238
9.97021
9.73153
9.56768
10.3462
11.1207
2.81438
2.68591
2.69768
2.69757
3.02371
2.9728
2.91759
3.01902
3.05618
9.17064
9.56829
8.48067
8.51478
9.14874
8.34965
8.2621
8.69495
7.93391
7.77529
7.85445
7.82326
8.09433
8.8724
8.34256
7.89289
8.18572
8.37334
8.70673
9.23511
7.87514
8.60369
3.74751
3.80578
3.74243
3.75154
3.77224
3.91293
3.80627
3.64983
3.79106
3.69897
3.78661
3.66346
3.80002
3.62419
3.63281
3.66746
3.7084
3.67489
3.69701
3.67436
4.97582
4.76486
4.86933
4.67252
5.01329
4.76466
4.84327
4.94467
4.87449
4.78056
4.80889
4.62377
4.69193
4.73805
4.69747
4.92849
4.83452
4.95304
4.63328
4.82153
4.68668
4.92413
4.65142
4.51029
4.59459
4.61839
2.72481
2.87395
2.87852
2.75619
2.60781
2.65313
2.46227
2.55853
2.85477
2.52111
2.91385
2.67586
2.62682
2.41335
2.44085
2.63209
2.45497
2.45521
2.46397
2.47279
2.49253
2.53618
2.52308
2.63543
2.47153
2.52039
3.20807
3.26085
3.34831
3.33682
3.14588
3.18159
3.19727
3.71836
4.04861
3.62507
3.5065
3.23302
3.26979
3.30707
3.36924
3.31706
3.47012
3.28907
4.22155
4.29714
4.47023
4.25211
4.15564
4.38455
4.41368
4.12895
4.14473
4.24681
4.33088
4.14696
4.08317
6.46082
6.98352
6.53221
6.21381
6.53824
6.93748
7.44567
6.79671
6.74747
6.43009
6.58384
6.99564
6.636
3.18863
2.6492
3.06268
3.10293
2.96349
2.86246
3.02727
3.02927
2.96535
3.22728
3.12725
3.06175
3.16811
2.4389
2.16829
2.17366
2.17551
2.18292
2.39727
2.27916
2.42254
2.20654
2.21145
2.2668
2.29696
2.20909
2.20001
2.25072
2.22719
2.16485
2.22066
2.31784
2.33908
2.23827
2.26791
2.45291
2.44001
2.69072
2.30522
2.38937
2.39377
2.30951
2.40009
2.34135
2.51973
2.51479
2.45893
2.44458
2.47887
2.54284
2.52168
2.43007
2.41193
2.50063
2.56921
2.46981
2.50382
2.57117
5.61023
5.74629
5.49379
4.51995
5.13807
4.70416
5.20509
4.90358
4.6406
4.60567
4.86512
4.74356
4.65655
4.9151
5.11191
5.30014
4.85495
5.10055
4.93831
5.155
5.17175
4.87303
4.88067
5.00798
5.57434
5.75668
5.58532
8.14695
5.64838
5.34806
5.48523
5.45834
5.51643
5.79578
4.60569
5.02284
5.2469
4.89275
5.9818
4.51316
4.89342
4.99231
5.51184
4.80384
5.1338
4.85647
4.87945
4.93585
4.69559
4.6401
4.68185
4.86965
5.11555
5.02497
5.22684
4.8331
5.07124
4.50595
4.57018
4.31717
4.35364
4.51473
4.65062
4.63748
4.67387
4.97044
4.97398
4.66091
4.58138
4.71907
4.82831
4.76561
4.67332
4.83003
4.82237
4.7661
17.117
15.8028
19.7468
14.2133
14.5048
18.3702
19.8386
16.3793
18.5597
17.3107
14.4822
18.6684
15.627
4.15426
4.229
3.9522
4.03443
4.09169
3.87909
3.83066
4.01817
4.03314
3.93397
3.88054
4.26601
4.14737
3.8518
4.08228
4.04863
4.53346
4.10302
4.69746
4.49239
4.05124
2.37967
2.39467
2.37679
2.42417
2.42394
2.39777
2.45702
2.42533
2.42364
2.35628
2.49882
2.53406
2.36863
2.43355
2.37056
2.41287
2.44194
2.48216
4.14382
5.21845
4.05598
4.45603
4.47925
4.89862
3.5202
3.45256
4.89904
3.54281
3.95626
5.40151
4.0805
3.89386
3.97756
3.76828
3.47588
4.09553
4.57924
3.47046
4.57132
3.93095
3.67492
3.45011
4.00648
4.66178
4.67083
1.72547
1.78696
1.79522
1.68795
1.76835
7.80618
8.02617
8.25054
5.98424
10.0648
5.93821
10.6137
13.1958
14.1527
10.7713
15.5648
12.722
10.5693
12.9015
7.32353
5.88535
6.17692
6.69922
6.45521
5.0239
3.81488
4.18493
5.56856
5.07566
3.50006
3.30048
6.10702
6.34912
3.63506
3.42604
3.73659
4.24807
4.22007
4.972
6.42017
7.4497
6.69604
9.82127
13.2002
2.0208
6.65986
3.30521
4.38037
18.9582
31.876
22.4369
22.5025
9.86048
4.73011
8.09849
20.6707
18.7062
6.94717
4.65113
4.92191
4.1082
3.96058
4.108
3.79192
3.8904
4.37493
5.37648
5.07599
3.52967
4.21416
4.94931
4.32679
4.98521
4.01171
4.75215
4.60205
3.66396
3.69223
4.6087
3.45684
4.52908
4.91086
5.26552
4.83957
3.52716
3.41608
3.54918
3.6041
4.04313
3.99225
8.03422
9.82449
9.39079
9.0511
9.69709
8.90112
11.9739
8.21718
10.4123
10.2412
6.48467
6.43384
6.60887
7.5989
9.54199
6.56639
10.0057
9.62144
6.09187
7.72059
4.6333
6.07155
3.64576
3.63218
3.62256
3.58101
3.57547
3.50917
3.59513
3.63979
3.60552
3.60361
3.5505
3.49998
3.49538
3.61211
3.59132
3.53765
3.56129
3.53535
3.45188
3.50222
5.72567
5.92231
7.0301
4.63324
5.61553
4.75373
7.16912
5.09451
5.51288
4.45504
4.51877
5.45962
4.67048
4.51371
4.87786
7.87185
8.75597
7.92165
10.1392
10.3466
8.82388
9.72658
8.86566
3.03487
3.14433
3.1113
3.13712
3.09876
3.09157
3.1276
3.20502
3.05402
3.05254
3.15258
3.07005
3.56278
3.6618
9.79266
5.38354
3.39903
4.03017
9.29061
6.92167
9.53403
10.0182
15.1473
7.48044
11.4781
17.2831
7.13307
4.45348
4.43855
4.8712
2.98219
3.02953
2.99486
3.00894
3.073
3.0274
2.98759
3.15298
3.07282
3.06527
3.11674
3.17487
3.04359
3.02785
3.05712
3.1636
3.21343
3.09347
1.84008
1.84881
2.07449
2.16926
1.9319
2.12911
1.83082
1.85634
1.89671
2.20695
1.96126
1.87442
2.38405
1.88907
1.86993
1.97951
2.05574
1.86533
1.83805
2.11724
1.86647
1.8508
15.8209
14.444
16.3221
18.9308
15.1673
18.0673
15.9108
14.3569
17.0402
18.8464
18.4797
17.0423
16.7726
15.6436
17.0028
15.2539
8.45498
8.1895
8.20362
9.14381
7.30599
6.75197
6.50427
6.04964
5.35436
5.45666
5.76252
5.7523
6.4015
5.29613
5.52588
5.93631
5.89963
6.18986
2.13965
2.34395
2.28705
2.08892
1.99495
1.9433
2.08639
2.11936
2.35186
2.19745
2.03055
2.01695
1.97501
1.94995
2.15534
2.01416
3.90538
3.87604
3.95356
3.89662
3.74064
3.89704
3.88013
3.89514
3.91782
3.90497
3.8692
3.92183
3.90847
3.88246
3.82803
3.82578
3.79354
3.7896
3.73676
3.74887
8.84287
8.63839
7.6278
6.66096
5.08978
7.21209
5.8584
6.33897
6.74583
7.94297
5.14794
4.88444
5.91444
6.14376
5.40025
5.72914
3.62504
3.64451
3.24127
3.31217
2.99519
3.32729
2.78116
3.18221
2.79298
2.61077
2.74258
2.60799
3.48954
2.96099
2.48471
3.17596
3.8637
2.08886
2.00795
3.38398
3.15919
2.91518
1.96264
1.88767
2.59647
3.06055
2.21635
2.11261
2.58111
2.81231
2.82253
2.81915
3.04533
3.09257
3.04795
3.10993
2.79477
2.86981
2.67884
2.7503
2.77724
2.73068
2.9676
2.96468
2.71
2.8609
2.93043
3.58373
3.77194
3.3082
3.11267
4.19486
3.82238
3.38618
3.38759
3.80238
3.11934
3.16319
3.0652
3.08576
3.24242
3.2607
3.10767
3.22729
3.12977
3.56643
3.24308
3.20266
3.22755
3.29237
3.30194
3.26049
3.19425
3.31568
3.29665
3.23595
3.31187
3.22736
3.24128
5.92379
5.62351
5.68713
5.8247
5.56424
5.74532
5.8452
5.76485
5.67923
5.69905
5.67685
5.51954
5.50325
5.50696
13.3012
13.6457
17.8938
17.4819
18.3736
18.4897
13.2099
11.8363
15.4253
16.3625
13.5917
16.5858
14.4297
15.0466
1.90501
1.92811
1.94702
1.95132
2.21939
2.36784
2.19291
2.32205
1.93741
2.11635
2.08414
2.07993
2.18312
2.06714
1.98156
4.85043
5.5835
3.89596
2.40287
4.19988
5.56791
5.95076
3.60956
4.00184
3.64068
3.67871
4.02273
3.70615
3.77222
3.62175
3.48855
3.73957
4.61356
4.57367
3.84406
4.0076
3.93665
3.65447
3.99593
4.41789
3.69298
3.71003
3.84309
3.72082
3.60088
3.69741
3.53418
3.45211
3.48342
3.61264
3.54161
3.52619
3.56325
3.37708
2.51463
2.54686
2.72484
2.67443
2.81424
3.20127
2.57819
2.52988
2.53292
2.83462
2.56512
2.52001
3.21298
3.1214
3.0048
2.85585
3.41133
2.557
2.38349
3.5631
3.35801
3.35457
3.13801
3.61958
2.32523
2.99056
2.45446
3.40918
3.67531
3.15164
3.48338
3.71812
3.9288
3.31173
3.87725
3.6726
4.05317
3.8198
4.11575
4.11849
3.99354
3.28413
3.96211
3.01176
3.08057
3.8234
3.5397
3.39105
3.29176
4.08693
4.12413
4.18127
4.11644
3.98024
4.09657
4.00286
4.03608
4.04776
4.02925
3.96634
3.98144
3.98579
3.94178
4.03564
4.04238
3.97788
3.94464
3.95241
3.93062
6.86738
6.58878
5.31073
5.69997
7.30543
6.24
5.5283
6.5333
4.92967
5.04771
5.01274
6.73474
7.84045
7.42807
7.49747
7.55159
7.66571
7.45415
8.01888
7.8715
7.32821
7.3664
7.04899
7.10313
7.0375
7.95638
7.65205
2.04921
2.11226
2.06942
2.063
2.72137
2.6863
2.62771
2.45445
2.54319
2.20077
2.35873
1.98157
2.01111
2.26906
2.29113
2.16603
2.70915
2.70495
3.00772
2.85701
2.73947
3.47737
3.42199
3.93574
3.7391
3.24914
3.53759
3.34874
3.62497
6.78952
6.09927
6.2478
5.90538
6.41572
7.72193
5.98958
6.07615
5.90592
6.16613
6.54961
7.92122
6.13268
14.1533
15.0164
14.5235
12.3822
13.2823
12.3508
11.4832
8.88184
9.48428
15.0124
14.3593
15.4371
15.6
9.4678
9.14291
12.9663
11.1374
9.5793
10.6109
13.15
4.75319
4.73282
4.62572
4.70894
4.53045
4.46395
4.94076
4.58466
4.64933
4.57653
4.93205
4.64856
4.66208
4.90838
2.69046
2.08638
2.12684
2.12434
3.64325
5.40294
2.94549
2.73803
3.45079
3.89617
2.14365
2.3711
3.22383
2.77334
2.03978
3.13642
2.57289
2.19314
5.20209
5.48417
4.06195
4.13343
5.29377
5.21391
5.17007
4.14816
4.27989
4.52689
4.16305
4.30197
5.38802
5.40337
5.53634
5.07195
6.09496
5.22368
4.86118
4.85223
28.679
6.52093
13.4075
6.67671
9.17729
2.34153
2.28485
2.56084
2.63651
2.19334
2.29461
2.21629
2.1891
2.7432
2.54294
2.46259
2.46241
2.16625
2.3193
11.9534
12.1373
12.6916
18.1046
15.5662
17.9277
5.96371
7.46925
11.5598
15.2941
5.96879
4.75942
4.8664
4.94676
4.87876
4.61905
4.63335
4.7532
4.73242
4.86165
5.00728
4.87146
7.00161
7.35978
8.44718
8.04242
6.46966
5.965
6.31064
7.68251
6.74559
6.08464
6.45478
5.7106
7.49951
8.13311
7.43277
5.59565
5.71509
5.49753
5.43687
5.62287
5.50255
5.21988
5.32325
5.2734
5.27752
5.52361
5.78662
5.38982
5.49548
5.43277
5.38231
5.69066
5.82992
5.40175
5.62228
5.5095
7.5767
7.18737
7.20214
6.79936
6.59194
6.22273
7.59189
7.99812
7.21356
6.55602
5.92974
6.87518
5.69642
7.16393
5.7398
6.98352
6.3874
8.25944
8.20207
7.92523
7.8039
8.50454
8.90412
8.37013
9.43698
9.81022
8.78565
8.24106
9.13406
8.55448
7.49043
8.16023
9.08446
7.98505
8.27765
7.70486
8.35271
5.818
5.95464
5.76295
5.8515
5.58858
5.78192
5.94013
5.68729
5.73608
5.8986
5.8806
5.90945
6.1195
6.13179
2.67697
3.00976
2.82717
2.97843
2.93412
2.82576
3.42436
2.79998
2.88208
2.98979
3.74875
2.98186
2.85058
3.88294
3.24512
3.80008
4.30154
2.86388
3.16747
3.53695
5.53075
3.75053
4.67906
3.27443
4.80682
1.84619
1.86127
1.90602
1.83434
1.87101
1.85225
1.83998
1.87102
1.88184
1.86213
1.82485
1.81495
1.84219
1.81166
1.8414
4.02185
4.08803
3.52736
3.26707
9.95102
11.0889
3.24139
11.6371
3.68529
3.92775
3.67437
6.53137
5.71278
10.5279
12.1479
8.22768
9.57184
8.47301
5.6798
5.87409
5.76721
5.6381
5.94618
6.47534
6.17363
6.02989
5.77185
5.61009
5.64728
6.35023
5.84347
6.43073
5.99792
6.52557
5.74534
5.70329
6.4428
5.94004
6.29313
4.59054
4.50076
4.51905
4.49737
4.51843
4.51822
4.59047
4.61207
4.54086
4.5532
4.60959
4.7033
4.81074
4.72781
4.68744
3.61978
3.68593
3.6412
3.6275
3.67681
3.74841
3.70676
3.60113
3.94808
3.76291
6.73769
6.89242
7.15492
6.95932
6.54151
7.07173
7.52576
7.31828
7.3131
6.85008
6.74334
6.99176
6.14654
6.37452
6.846
6.04436
5.9601
6.17549
6.0778
5.71529
6.64387
6.29661
7.14528
6.72993
7.59512
7.66094
6.45447
6.27077
6.03426
7.66548
7.4915
6.6814
2.65191
2.70894
2.77645
2.75523
2.26531
2.53472
2.26434
2.23631
2.16136
2.85881
2.97426
2.79692
2.29203
2.51919
3.04796
44.324
15.0097
20.9673
10.039
17.8865
35.7626
31.7583
26.3137
12.9729
11.5603
11.7768
23.6694
15.8578
15.0562
27.325
4.93035
4.78694
4.91759
4.8694
4.71271
4.83341
5.35448
4.94577
5.69926
5.08256
5.46486
5.01464
4.87912
5.11164
4.99424
4.81244
4.79332
4.86862
5.035
4.67013
4.62828
4.96685
4.86747
4.96183
4.82905
4.8064
4.84208
4.68495
4.74291
17.3238
13.5676
21.6065
39.4498
24.2458
19.8677
17.0462
33.1291
19.969
3.08743
2.86786
3.16338
3.12971
2.83017
2.84254
3.2703
3.97487
3.86242
4.94197
4.89949
3.54592
3.73765
4.56912
3.27136
4.15937
4.21194
3.3066
59.7743
66.954
81.1503
38.2179
64.7948
75.079
105.354
101.136
45.0836
89.1255
60.3069
61.1959
85.1128
88.1005
122.341
124.518
212.202
76.5921
92.2305
122.496
204.111
62.2213
65.919
62.0277
81.1258
63.6788
121.401
46.9806
46.1184
82.0665
62.5238
8.50222
5.52274
6.87211
20.1635
8.10946
25.7838
4.71436
8.12424
14.4533
7.79984
9.50514
9.27982
10.5355
9.53835
10.0883
8.89136
8.3935
9.6919
10.6123
9.75153
10.5908
10.4506
9.85954
10.2972
9.91243
14.9611
15.024
15.2546
13.9374
16.9701
17.16
14.4042
13.2156
17.1579
14.7826
15.3966
11.5997
12.6542
10.7819
13.7002
9.10858
14.9647
13.1007
8.56143
24.9352
23.4629
32.8649
28.7007
28.0427
26.8707
28.3127
34.7075
37.1
35.9978
36.816
41.8277
45.2169
8.35535
7.46612
12.8544
15.4954
7.93714
8.38754
14.7107
11.4486
7.49182
7.27867
11.8819
8.50955
8.07678
8.2519
9.66431
14.1127
16.1684
19.6203
15.4191
19.0685
16.3758
10.4459
22.8521
13.1763
22.5271
23.2144
22.416
28.2466
24.9008
9.44651
8.5885
20.6672
26.5345
28.2286
20.7134
3.34065
3.30881
3.21755
3.27549
3.29088
3.33748
3.36793
3.31766
3.17764
3.1752
3.3207
3.3712
3.27407
3.37251
3.35108
3.74613
3.57395
3.59062
3.25131
3.46297
3.61742
3.31381
7.35555
6.87528
7.19523
6.73949
7.13355
7.34095
7.81766
7.6901
7.3493
7.03722
7.12533
7.6748
7.1161
7.81571
7.50598
7.41183
7.17139
3.56779
3.76614
4.07887
4.07208
3.91992
3.70076
3.53865
3.58262
4.1786
4.41381
4.93557
4.82484
5.40906
3.2478
3.81893
4.03299
3.96381
4.30649
3.89829
14.8837
12.8684
8.223
8.51738
7.69888
7.47308
8.44422
10.1666
15.9618
16.2738
15.1473
15.4887
17.473
11.3609
8.4121