/*--------------------------------*- C++ -*----------------------------------*\
  =========                 |
  \\      /  F ield         | OpenFOAM: The Open Source CFD Toolbox
   \\    /   O peration     | Website:  https://openfoam.org
    \\  /    A nd           | Version:  10
     \\/     M anipulation  |
\*---------------------------------------------------------------------------*/
FoamFile
{
    format      ascii;
    class       volScalarField;
    location    "6";
    object      p;
}
// * * * * * * * * * * * * * * * * * * * * * * * * * * * * * * * * * * * * * //

dimensions      [0 2 -2 0 0 0 0];

internalField   nonuniform List<scalar> 
75457
(
-49.3845
-44.6465
-41.2744
-37.4017
-31.9771
-34.6485
-44.6942
-45.2352
-31.3669
-25.0505
-28.911
-32.4714
-32.2578
-29.1107
-5.22216
-5.94322
-6.06036
-5.86916
-6.49728
-6.00659
-5.29114
-6.24392
-6.12203
-6.62068
-6.42004
-6.98995
-6.32488
-1.02333
-1.03293
-0.603018
-0.497382
-0.48943
-0.562507
-0.700274
-0.37451
-1.16727
-0.99933
-1.12124
-1.32674
-0.488571
-0.852344
-0.4346
-0.856304
-13.1881
-13.1167
-12.098
-12.2091
-12.8538
-6.46176
-7.23653
-7.65418
-6.9455
-6.90817
-7.12505
-7.65481
-7.74992
-7.38838
-7.69789
-6.96304
-7.24829
-7.04754
-6.84928
26.0886
26.386
26.1195
26.4862
26.7631
26.7745
26.3927
26.4351
26.7516
26.525
26.1931
26.517
26.4994
26.1378
26.3846
-7.85304
-9.05414
-7.40499
-8.49524
-10.9097
-5.53691
-5.68958
-7.83067
-8.75788
-8.16774
-8.03485
-5.62125
-6.44867
-5.33763
-5.53973
-6.42639
-5.67004
-10.0496
-10.2613
-10.2774
-10.6313
-10.2116
-10.044
-11.2369
-10.4648
27.5269
27.4177
27.6759
27.6931
27.5614
27.4131
27.332
27.7805
27.7827
27.3998
27.4097
18.3992
19.0497
21.465
21.047
18.4583
20.008
20.0423
19.5251
19.8743
21.5282
21.3156
21.8504
22.3807
21.1557
20.6052
19.4289
21.8051
20.8222
10.1266
10.1016
9.54678
10.4059
10.0193
11.4866
11.1835
11.0697
11.0735
4.50284
4.05895
4.60504
4.1629
3.62299
4.10661
4.13444
3.21923
-9.96353
-9.99833
-9.42014
-9.61009
-9.9743
-9.64553
-9.38028
-8.91998
-7.42247
-7.48335
-8.93636
-8.66437
-8.23981
-8.90067
-7.81252
12.6011
14.1602
14.3943
13.7394
14.1515
10.5141
11.882
13.408
12.432
13.3647
10.7174
9.44501
10.0196
-12.277
-12.7289
-12.5919
-12.7794
-12.5472
-12.7032
-12.0722
-12.7784
-12.6123
-12.8211
-12.797
-12.6805
-12.5933
-12.6978
-11.2516
-9.7319
-12.175
-9.74078
-9.89298
-11.5963
5.21425
5.90974
4.49174
5.46951
3.63969
4.38327
6.92232
6.54194
5.7412
2.97254
2.8969
-10.9614
-10.8032
-11.2095
-11.1589
-11.1264
-11.0468
-10.8838
-10.7805
-10.3567
-11.19
-10.9648
-10.7255
-11.0794
-10.6812
1.27241
0.41942
0.764869
-0.805603
-0.306759
0.301161
0.0454501
1.32021
0.90216
0.131596
-0.507736
-1.03154
1.0337
-0.523621
-10.4666
-10.5546
-10.1271
-9.99467
-10.3461
-10.2826
-10.4955
-10.4254
-10.7532
-10.0196
-10.3462
-9.7347
-10.4381
-10.6754
-10.3284
-10.1691
-10.4057
-13.309
-13.0031
-13.0373
-12.9334
-14.2995
-12.7489
-12.8929
-12.1911
-12.8379
-13.4801
-12.3228
-13.2133
-12.505
-12.4684
-12.5528
-12.624
-12.0346
-11.9464
-12.3003
-12.0901
-11.748
-12.1558
-12.2298
-11.9922
-11.9857
-7.90787
-7.75907
-7.95894
-7.60261
-7.61947
-7.47533
-7.31676
-7.29707
-7.29198
-7.60642
-7.88727
-7.75026
-7.21231
-7.52299
-7.5324
-0.266294
-0.25812
-0.161618
-0.295156
-0.118155
-0.169768
-0.476995
-0.379769
-0.175093
0.14539
1.31127
0.228489
0.611348
0.807972
2.11127
0.576644
0.295057
1.10228
0.119246
0.364552
-0.258475
0.231829
-3.77625
-4.4414
-2.78344
-3.38059
-4.2868
-4.90456
-4.95295
-3.2789
-4.3838
-4.91802
-4.792
-9.67104
-9.80564
-9.97852
-9.9749
-9.88697
-9.61276
-9.65734
-10.0776
-10.2934
-10.0581
-10.3008
-9.45623
-9.73643
-9.86791
-10.0375
-9.78144
-9.93424
-13.4795
-12.0833
-11.6693
-13.7407
-18.1051
-17.7801
-17.3111
-15.2389
-15.4952
-14.9804
-17.0901
-4.04988
-4.80182
-5.61813
-5.47102
-4.95055
-5.13123
-4.41023
-5.31363
-5.61163
-4.75279
-4.90184
-0.216227
-0.187469
-0.357085
-0.440669
-0.173514
-0.143043
-0.436457
-0.181575
-0.461221
-0.580642
-0.523811
-0.232334
-0.447214
-0.869765
-0.746966
-5.99416
-4.65491
-7.38012
-6.22561
-5.85607
-9.55923
-10.0785
-9.54342
-9.98209
-10.0676
-9.54143
-10.5551
45.1123
49.8648
38.4952
41.1749
43.9135
45.8549
45.6809
48.4819
40.8269
45.2814
43.7196
44.6513
40.501
44.9849
39.5122
40.7901
42.7217
37.8743
29.8005
29.3442
29.9786
30.6416
31.5671
32.4579
30.071
30.7465
33.0574
36.3972
33.2033
33.545
35.3344
20.8606
18.106
15.7721
17.4438
21.7317
18.4438
17.0529
18.5426
18.1556
16.25
23.4441
23.465
16.9086
18.4479
15.7899
21.8223
23.9789
24.1464
20.2719
20.2129
20.8077
22.0606
-12.2936
-12.8481
-13.0542
-13.0356
-13.1514
-12.3918
-12.5172
-12.6931
-12.8513
-12.3883
-12.9043
-12.4465
-12.6149
-12.5251
-12.6734
-12.6166
-40.9513
-45.6368
-28.1547
-34.1461
-26.1999
-34.3117
-32.3293
-29.8971
-25.6434
-31.7898
-51.133
-45.199
-30.4035
-40.8538
-27.264
-28.0314
-1.08202
-1.22789
-1.06542
-0.259972
0.0946227
0.693652
-1.42543
-1.74305
-0.122698
-0.151266
0.699146
0.355734
0.101044
0.0327311
-0.142396
-0.771821
-1.48345
-0.704445
29.0291
33.3911
32.0099
28.3267
29.6608
32.4843
35.9034
34.9205
30.1445
36.02
37.7887
35.9535
32.1286
28.891
29.6821
30.4995
22.2403
21.625
22.1356
21.9136
21.1248
22.827
23.4167
22.8266
22.1846
23.1813
22.6153
21.8051
22.6459
21.0853
21.7502
23.2578
23.7401
8.79041
8.60832
8.33414
8.66076
8.65444
8.74799
8.89127
8.89037
8.85276
8.73288
8.45583
8.53847
8.92573
8.63024
8.83091
8.07003
8.12621
-5.42574
-6.49448
-8.2131
-6.9361
-6.25151
-6.10297
-5.65287
-5.58601
-7.00892
-6.76264
-7.92188
-8.06457
-6.59517
-6.26948
-8.22044
-7.13533
-6.63184
-7.54761
-5.03282
-5.35736
-4.88471
-5.03541
-4.50371
-4.53018
-4.57804
-4.61399
-4.04578
-4.35487
-4.50995
-3.9668
-3.83047
-4.24851
-8.07741
-7.28385
-8.34768
-9.2029
-9.31676
-8.79281
-8.38915
-8.10869
-8.05142
-9.56422
-9.28983
-9.1845
-8.40934
-7.87179
-8.31381
-8.98673
-9.09726
-9.34271
16.3264
12.0794
12.9188
19.8773
16.1718
10.2561
13.0998
13.5843
9.97897
18.4045
13.3887
10.5249
-11.4829
-11.2464
-10.7458
-10.7486
-11.1345
-11.0765
-9.39668
-10.0246
-11.0307
-10.8923
-10.9437
-10.0108
-10.1623
-10.8637
-10.8054
-10.6644
-5.71447
-6.19814
-5.20169
-5.57405
-6.52348
-6.66275
-6.1972
-5.01606
-4.92152
-5.10218
-5.0812
-6.24951
-6.50402
-5.25321
-4.86991
-5.92368
1.48066
0.75494
0.090221
3.23635
4.14509
1.7173
2.39096
-0.751005
0.836449
1.49769
3.09738
2.00869
3.02654
3.80755
3.53922
0.50645
0.610574
1.86047
0.0284034
-3.18028
-2.36446
-2.9221
-4.83696
-3.88011
-2.83859
-4.84644
-4.48796
-3.16743
-3.57714
-3.50763
-4.73432
-3.44357
-3.17628
-0.773781
-0.701078
-1.51267
-1.58431
-1.27864
-1.47014
-1.41422
-1.23757
-1.56297
-1.2651
-1.47884
-1.28733
-1.77677
-1.32157
-1.37991
-1.27495
-1.15857
-1.56168
-6.7121
-7.27644
-6.41193
-5.14052
-5.64125
-9.16658
-6.70896
-6.4096
-6.45375
-7.48246
-8.89852
-8.84274
-9.24166
-9.63935
-9.29956
-9.72837
-10.6965
-9.43352
-10.7992
-7.58951
-7.73374
-10.9213
-12.1368
-11.3134
-10.6503
-10.092
-11.7541
-9.51242
-10.2885
-10.4633
-10.9567
-9.11522
-12.9674
-13.0297
-12.7026
-12.9214
-12.6296
-12.8703
-12.9092
-12.7101
-12.4965
-12.586
-12.8382
-12.5983
-12.7424
-12.5754
-12.7115
-12.6556
-12.6445
-8.57841
-8.7786
-10.2399
-10.709
-9.15138
-9.53233
-10.4479
-10.6742
-9.55976
-10.3727
-9.61749
-3.96667
-4.04997
-3.05799
-2.26139
-2.73786
-2.13799
-2.53575
-1.41636
-2.60506
-2.35458
-2.76166
-2.41641
-1.89801
-3.61695
-3.28022
-3.26039
-3.68887
-3.50772
-2.85113
-3.40216
-3.11423
-3.69716
-3.65892
-2.97012
-2.96055
-3.35272
-2.56538
-3.27843
-2.97182
-2.6101
-3.05136
-2.61155
-3.04193
-3.23062
-2.63576
-8.642
-8.76123
-8.7643
-8.63522
-8.13127
-7.52565
-8.64686
-7.20745
-8.0501
-6.66666
-7.18619
-7.71308
-8.31183
-7.32363
-7.47467
-8.84799
-7.79209
-6.84247
-6.9934
-6.67824
-8.49795
-8.64216
-8.99221
-8.94972
-7.95864
-8.1329
-8.92231
-8.88175
-8.62917
-7.35508
-7.76096
-7.71502
-7.36758
-8.03755
-7.92787
-8.28374
-7.24517
-7.44918
-8.16907
-8.27405
-7.36483
-7.55458
-7.03147
-8.32019
-7.40342
-8.15565
-7.57089
-8.8356
-6.79086
-6.68441
-6.5311
-7.20606
-8.01901
-7.75317
-8.40065
-7.33528
-7.00436
-7.52713
-7.43576
-9.0211
-8.61069
-9.93657
-9.21595
-10.0127
-10.889
-10.4143
-10.1537
-9.64666
-9.72086
-10.6343
-10.5998
-11.237
-10.1608
17.1358
17.8316
18.7814
17.5423
18.3844
17.2867
18.3483
17.0807
17.5981
18.6558
-12.182
-12.0091
-11.4298
-11.5064
-12.3714
-12.1871
-11.667
-11.8256
-12.2531
-11.392
-11.9108
-11.5885
-11.6554
-12.2094
-11.6763
-11.9956
-12.1381
-13.4363
-12.7728
-13.9121
-13.5815
-13.5646
-14.1963
-12.8131
-13.4802
-12.7938
-12.6714
-13.4024
-13.8083
-12.5615
-13.5727
-13.4085
-13.349
-13.163
-13.9834
-13.2984
-13.3121
8.25124
8.66617
9.41273
8.78744
8.43076
9.66362
6.12498
7.68024
7.91014
7.63971
6.93902
9.08228
8.49959
9.09047
8.19939
7.76823
-16.5145
-17.3798
-15.9032
-15.5527
-16.0122
-13.205
-15.1741
-16.0661
-15.7694
-15.947
-12.5354
-13.824
-15.673
-13.973
-14.8534
-13.0609
-12.6696
-12.6461
-13.6533
-13.7803
-14.2694
-12.7035
-12.3046
-12.1677
-13.1171
7.38444
6.34564
6.01341
6.12387
6.06494
4.66494
4.34546
3.78159
3.88196
4.39845
4.46956
3.5798
5.15222
4.3598
6.01392
6.13343
4.30042
5.34108
4.93181
-11.7827
-11.7599
-12.6955
-12.2115
-13.5227
-11.9872
-11.5083
-12.4359
-12.379
-11.8221
-11.7009
-12.628
-12.8028
-13.323
-12.4812
-12.1151
-11.8972
-12.9073
-12.4542
-6.51226
-7.66382
-7.11232
-6.67297
-7.05488
-7.75612
-6.98605
-6.34503
-6.9809
-7.9852
-8.14332
-7.53078
-7.78937
-7.43282
-8.15251
-8.33725
15.8084
16.3351
15.5233
15.3843
16.4229
17.394
17.4913
16.4029
16.2765
17.1386
17.3531
16.3742
17.4886
17.962
18.7273
18.1056
-13.9427
-16.4293
-12.7325
-13.4779
-15.5945
-17.8339
-9.69459
-10.6758
-12.9463
-14.9078
-12.4066
-13.3007
-15.0589
-17.8324
-16.0827
-11.3344
-15.0733
-13.0286
-15.0652
-17.7726
54.0751
48.0767
43.8489
43.5215
52.558
53.8185
47.3127
52.1268
46.3218
48.3358
45.9122
46.4366
43.2102
43.0734
48.801
17.1847
15.7992
20.4986
22.0319
19.8588
16.8953
22.3488
18.9056
21.3494
24.6368
23.5094
24.7527
26.5682
24.258
-16.8988
-17.6325
-17.1833
-17.9139
-16.0776
-16.3642
-14.7996
-13.7014
-15.9469
-15.8774
-14.1563
-13.7021
-16.335
-14.7014
-14.3921
-14.9771
-7.22267
-6.83536
-6.96072
-7.07474
-6.73648
-7.1959
-6.91946
-7.26811
-7.45871
-6.57115
-6.55878
-6.55361
-7.30382
-7.22669
-6.55036
-6.97629
-6.86898
-7.32917
-7.05411
-13.3333
-13.2717
-12.9568
-13.8414
-13.8834
-13.8572
-13.0115
-13.9187
-13.737
-12.2752
-12.864
-12.8209
-13.0936
-12.8291
-14.1157
-13.8671
-12.3682
-12.8333
-12.6896
-12.6789
-12.3592
-12.4241
-12.933
-12.3402
-12.4346
25.6307
24.7432
24.7797
25.2936
25.485
25.0261
24.7909
24.8544
25.5779
25.3419
25.4237
25.1419
25.3095
25.0619
25.4134
25.4696
25.4417
25.2117
24.845
25.5483
-9.56963
-10.3618
-9.51
-10.0427
-9.53473
-9.20335
-9.36207
-10.1227
-9.15088
-9.47135
-9.68386
-9.85065
-5.96617
-5.98491
-5.41967
-5.18949
-4.96334
-6.00479
-6.01629
-6.20742
-5.80717
-5.21221
-5.14708
-5.4534
-5.67493
-5.1069
-5.34331
-5.41244
-5.53209
-5.38997
-3.51322
-3.33063
-3.63368
-3.30409
-3.45393
-3.89467
-3.96833
-4.15731
-4.19583
-3.3821
-3.85803
-3.51209
-4.23783
-4.11244
-3.67455
-3.45974
-4.26146
-3.91778
-3.41205
-2.5575
-2.69444
-2.88342
-2.00236
-2.46089
-2.2261
-2.02023
-2.97891
-2.59418
-3.06761
-2.87325
-2.09261
-2.10416
-2.36984
-3.12592
-3.06106
-7.48604
-7.08079
-7.43146
-7.49776
-6.96811
-6.80163
-6.94175
-7.84478
-7.74734
-12.556
-12.3223
-12.3432
-12.5711
-12.6729
-12.6801
-12.4769
-12.7697
-12.4784
-12.4125
-12.6747
-12.5028
-5.47382
-5.18545
-5.46385
-5.42067
-5.46383
-5.61727
-5.61481
-5.68364
-5.87958
-5.62222
-6.1962
-6.01066
-6.01791
-6.14643
-5.98163
-6.06325
25.6096
25.7588
25.5827
25.2919
24.8855
24.8618
24.4758
24.425
24.7379
25.3141
-9.71856
-9.48985
-9.76542
-9.52706
-9.83227
-9.71346
-9.99852
-9.95985
-10.0569
-10.0983
-9.84264
-9.65732
-9.8957
-10.261
-10.1596
-9.93433
-9.86882
-9.86164
-6.91487
-7.34685
-6.84741
-7.00784
-6.9623
-6.90522
-7.18569
-6.8877
-7.11916
-7.64932
-7.34379
-7.45979
-7.19124
-7.41507
-6.84723
-7.07181
-7.29546
-7.043
5.38381
4.77561
4.22808
5.15859
3.27745
2.78927
5.72729
5.22851
3.98682
5.38457
4.40773
3.5462
4.24924
4.2701
26.0784
25.9825
25.8382
25.6725
26.1335
25.6966
25.5121
25.5483
25.8695
25.6739
25.8795
26.0065
25.5447
25.5181
25.4064
25.4472
25.8412
25.632
25.794
25.5473
39.8849
38.3706
31.6458
34.838
24.2117
28.4916
14.169
29.6489
29.8912
27.1927
32.9053
22.9776
34.4416
39.5007
35.5376
43.0682
24.7356
36.0386
31.462
-16.2563
-17.5111
-12.8807
-12.0819
-17.3214
-20.3941
-20.2775
-23.1461
-12.8886
-12.8683
-26.0552
-22.5401
-15.7914
-19.5126
-22.2648
-16.2136
-16.8775
-23.6574
-19.4848
-20.3356
-1.01956
-1.67831
-1.34524
-1.70727
-1.93053
-1.33976
-2.57316
-1.61753
-1.95549
-1.92727
-1.54547
-1.7206
-2.1718
-1.42746
-2.46102
-2.43901
-2.34487
-2.24679
-1.61093
-14.3545
-15.4505
-19.2081
-19.8168
-16.7096
-15.9724
-14.755
-16.2274
-18.7424
-14.7298
-16.2584
-15.8676
-16.4163
-17.6425
-18.045
-17.2756
28.3575
28.3088
28.1747
28.2513
28.5179
28.5335
28.4131
28.4384
28.2507
28.1204
28.6253
28.402
28.5689
28.567
28.2017
28.1182
28.2801
28.4449
28.5761
28.1822
-3.03654
-3.16707
-2.61265
-2.20193
-5.0386
-5.11243
-5.5042
-6.33718
-4.33951
-2.99669
-2.653
-5.036
-5.35975
-5.87321
-6.58361
-6.48645
-4.25122
-5.99344
-5.76573
-4.73261
28.2641
28.1136
28.1952
28.2375
28.2269
28.2661
28.1923
28.3127
28.3823
28.4032
28.4755
28.1656
28.326
28.3234
28.4199
28.4055
28.2781
-6.49145
-6.35323
-6.58167
-6.84767
-6.71922
-6.36456
-6.11914
-6.59128
-6.71278
-6.89227
-6.20922
-5.77497
26.1264
25.9502
26.51
26.5188
26.2623
26.218
25.8484
26.0611
26.3167
26.468
26.5123
26.1419
25.9417
26.0624
25.8762
26.0643
25.856
26.1348
26.2012
25.8573
26.1072
19.3685
18.9261
19.0163
19.4414
19.509
18.6686
19.0733
20.7347
20.9202
20.7162
19.99
19.6457
19.25
19.1627
19.2325
19.8975
19.8215
19.785
5.94588
6.21075
6.27164
5.85541
6.12747
6.81565
6.44802
6.46958
6.24579
7.38045
7.1885
7.44121
7.27585
6.36251
6.09157
46.8525
41.7915
36.0077
37.4473
43.7809
41.7528
53.0878
38.6062
45.5011
40.4242
52.7341
52.4645
48.2086
41.5786
-5.56531
-5.36989
-5.60786
-5.95655
-5.99377
-6.04504
-5.64639
-5.75461
-5.72429
-5.6181
-6.11566
-6.12526
-5.85958
-5.29513
-5.42715
-5.71387
22.4455
20.4154
22.0206
20.2475
19.928
20.3027
20.6343
20.6912
21.5206
21.9285
24.3403
23.8375
22.8892
25.1344
25.7186
23.1719
24.2061
27.387
27.3335
26.9184
27.0275
27.1217
27.1922
27.4098
27.4542
26.8752
27.0014
27.3612
27.3786
27.3397
27.2025
27.163
27.33
27.1229
-22.1758
-19.6738
-19.4173
-23.9689
-19.1909
-24.6109
-31.4797
-18.8346
-22.2719
-22.2497
-21.2991
-23.358
-25.3541
-20.0425
-17.9866
-17.6195
-13.7458
-15.4734
13.9485
13.6227
15.2607
14.9431
14.1868
12.9123
13.2861
14.8593
15.3877
14.9825
14.7095
15.0397
13.3025
13.0564
12.4326
14.2917
13.1195
13.7266
12.7193
14.2405
13.5379
13.3048
-7.00781
-7.34344
-7.16021
-7.20152
-5.70055
-5.84806
-4.27306
-4.37139
-5.98651
-6.51273
-6.67722
-5.71843
-4.3691
-4.61891
-4.34948
-4.48511
-5.14736
-5.73161
-4.89608
-5.04161
-5.55431
-5.30251
-5.05495
-5.45804
-5.75983
-5.59173
-5.64423
-4.80771
-4.83368
-4.70808
-4.92324
-4.89164
-5.69597
-5.70272
-5.60658
-5.24932
-4.83023
-5.32625
-6.47713
-6.49575
-6.56378
-6.68008
-6.91321
-7.03343
-6.49004
-6.94045
-6.31148
-6.61187
-6.23817
-6.88964
-5.94197
-6.25052
-6.03022
-6.95841
-6.43858
-6.09911
-6.89669
-6.14795
-5.82094
-5.23663
-7.63073
-4.76479
-2.20486
-8.34016
-8.13691
0.100217
-1.76261
1.94306
-3.67521
0.54937
-3.99017
-2.65698
-6.51474
-6.31405
-3.02758
-2.01197
2.72983
-0.915506
2.43111
2.51233
1.02399
0.381135
0.821521
1.36704
2.92865
2.79453
1.89658
1.18381
0.411926
0.749569
0.831779
0.549121
1.54308
1.38612
2.49143
1.29522
0.571297
1.18684
-10.5331
-10.0914
-10.2748
-10.3523
-10.4863
-10.512
-10.7512
-11.0416
-10.5289
-11.1203
-10.6362
-10.4049
-10.4662
-10.3849
-10.4718
-10.4039
-10.4602
-7.41226
-7.54686
-8.78988
-8.37361
-8.16288
-8.40456
-8.57239
-8.30744
-7.77137
-8.46502
-7.96197
-8.48125
-8.16696
-8.24798
-3.95071
-4.45434
-4.56385
-4.9566
-4.80156
-5.03357
-3.94978
-5.10056
-5.35798
-5.73678
-5.78324
-4.0969
-4.74877
-5.354
-5.35946
-4.24409
-4.93928
-0.041773
-0.150766
-0.242398
-0.00937107
-0.13377
-0.193934
-0.17143
-0.0282893
-0.176757
-0.200515
-0.37285
-0.561275
-0.730822
-0.497719
-0.178894
-0.327848
-0.510166
-0.537687
-0.474233
-0.624204
-0.303898
-0.178147
-0.663963
-0.0550337
-0.305973
-0.283243
-0.445657
-0.578286
-0.287795
-0.474832
-0.400018
-0.0768649
-0.134279
-0.372512
-0.53666
-0.238074
-0.272437
-0.559193
-0.151486
-0.301687
-15.9145
-17.7294
-20.648
-20.2378
-19.7558
-19.9944
-16.8402
-18.4258
-19.2336
-15.5209
-17.3849
-18.2134
-20.0015
-18.6763
-19.4521
-18.8422
-17.9237
-2.47076
-2.45856
-2.85182
-1.61184
-2.23346
-3.0743
-3.34206
-1.53985
-1.82216
-2.75871
-11.8987
-11.8566
-12.4216
-12.744
-11.6666
-11.5618
-12.0585
-12.6533
-12.5736
-12.2477
-12.0321
-11.6682
-11.7733
-11.4656
-11.4799
-11.8676
-11.7012
-11.7713
-9.9748
-9.94509
-10.0556
-9.69918
-10.1609
-9.81058
-9.87109
-9.74014
-9.45686
-9.53138
-10.1635
-10.2825
-9.94693
-0.629898
-0.40652
-0.807764
-0.524527
-0.812177
-1.10859
-0.870966
-0.302833
-0.183363
-0.615069
-0.99441
-0.921349
-0.308802
-0.326322
-11.2654
-11.1989
-11.5667
-11.4132
-11.0912
-11.2118
-11.5331
-11.2667
-11.2146
-11.2982
-11.2377
-11.6041
-11.281
-11.003
-11.8318
-25.809
-23.7667
-22.617
-23.9369
-21.8216
-21.3638
-26.4919
-26.6974
-26.7669
-27.8065
-28.1462
-27.9518
-23.0383
-22.5318
-24.0892
-24.0693
-23.9066
-27.0447
27.4162
27.4114
27.6562
27.0221
27.1323
27.0908
27.1984
27.0242
27.3327
27.3133
-10.7778
-10.8352
-10.8678
-11.0719
-10.7483
-11.042
-10.7054
-10.777
-10.5878
-10.6691
-10.722
-11.0095
-11.0813
-10.8508
-11.0964
-10.6849
-10.8477
-10.8644
-10.6917
-10.8545
-10.9186
-10.8421
-4.38202
-4.45893
-4.36014
-4.3708
-4.13944
-3.48828
-4.25302
-4.40654
-3.65458
-3.75521
-3.36813
-3.16126
-3.70253
-3.68796
-3.35364
-3.07514
-3.33092
-4.03702
29.0066
29.9862
31.2181
29.9119
28.5491
30.992
29.1411
30.0861
26.4204
28.3481
29.8976
27.095
27.3973
26.136
24.8863
28.0086
25.8499
24.7055
25.7697
30.1042
27.9337
26.9759
24.346
29.5531
30.6004
31.9286
31.4458
35.7028
34.7569
32.2257
34.8321
28.1672
27.2298
35.7331
36.6915
33.4278
35.9678
28.0796
28.1976
28.2445
28.0507
28.1704
28.055
28.2412
28.1683
28.0078
28.1593
27.9458
27.9772
28.2198
28.1454
28.1554
28.2299
27.6014
23.3413
22.8953
25.1637
26.3124
28.1978
26.2956
26.4023
22.6542
21.9503
26.4863
24.4559
25.9439
23.1456
25.16
23.0421
22.7719
23.8716
24.4223
23.4913
24.1676
25.1859
24.9898
24.3617
23.5878
25.2319
25.5882
25.0278
20.3724
20.0057
22.155
23.6088
11.8225
10.8735
20.7735
20.7113
11.5132
13.7534
16.1912
16.3226
17.8112
15.3073
13.0831
10.9171
26.3166
25.4916
25.8484
26.3657
25.5663
26.8816
26.4768
25.68
25.6858
28.4948
28.07
27.7351
27.1892
26.0945
27.2271
26.662
27.6898
27.0806
26.4457
27.9813
7.2308
8.89739
3.75955
0.838141
2.08939
4.70465
11.9601
3.81486
7.63997
7.5799
1.41894
6.36099
7.03185
4.05689
6.99457
13.5086
13.5965
11.9695
10.0068
8.33595
17.4009
14.5313
14.4273
11.6048
15.6498
15.715
15.6922
12.9571
11.6173
12.6873
12.8107
13.5165
13.9473
27.1668
27.227
26.9977
26.893
27.6135
27.5959
27.0926
26.928
27.7825
27.7763
27.1644
27.4693
27.7566
27.7149
27.5952
-12.4463
-12.2722
-13.0774
-13.1064
-13.6666
-12.7743
-12.6699
-14.3414
-13.9859
30.089
29.2165
28.2291
28.1917
28.8981
28.334
30.5393
27.9859
31.7624
30.3451
28.1472
29.995
30.6113
30.9322
31.4201
27.2532
27.5574
29.3174
31.4356
30.1116
27.7204
28.5846
1.63868
2.34975
1.82521
-0.25813
0.805955
1.82914
-1.23764
0.127322
0.3933
-1.60976
-0.499472
-2.68231
-1.68888
-2.69207
-3.17011
-2.48687
-1.29032
0.338351
-3.51686
-0.791646
25.9833
24.3676
28.9572
24.6375
26.4558
33.0815
30.4066
26.5528
30.3411
25.6573
28.026
33.8097
31.6403
32.4277
35.8961
29.28
28.7538
26.9782
31.4419
25.3876
28.5652
26.3865
30.0251
34.5339
35.4449
33.4202
-10.4418
-11.3624
-10.7267
-10.3712
-10.7168
-11.3123
-10.9143
-10.5838
-11.7184
-10.4815
-10.6854
-11.1876
-10.4279
-10.299
-10.1708
-10.4076
-10.5044
-11.246
-10.7278
-10.1244
-10.2041
-10.1661
-10.0416
-10.408
-10.1832
-10.4143
-8.19736
-7.84862
-8.51798
-8.89331
-8.11939
-8.31705
-8.06519
-6.80489
-8.65703
-6.10035
-8.44684
-7.57155
-7.00216
-7.73913
-8.61055
-8.65766
-8.11624
-7.78216
8.60598
8.114
4.786
6.59227
5.39486
3.5124
0.163759
4.64194
4.93548
2.55566
-2.10098
1.43439
2.943
23.2856
24.0851
24.4235
23.0817
24.7598
24.5296
24.944
24.1068
24.2154
23.2475
23.3851
25.2858
24.6836
-14.0558
-13.9976
-14.7097
-14.2821
-14.3121
-14.8161
-16.2282
-15.5491
-17.2823
-15.0909
-15.3661
-14.6919
-16.4541
-13.2693
-11.7294
-11.5073
-11.9799
-12.3419
-12.841
-12.868
-13.2308
-11.7142
-11.8487
-12.3162
-11.9014
-11.4747
-11.8502
-11.7737
-11.016
-10.5852
-10.7976
-10.934
-10.8981
-10.6681
-10.5006
-10.4889
-10.2537
-10.5845
-10.6651
-10.8666
-10.8634
-10.7931
-10.392
-10.5698
-11.4284
-11.0548
-11.218
-11.0273
-11.1084
-10.9323
-11.0688
-11.455
-11.1812
-10.9059
-11.1789
-11.1858
-11.1821
-11.7232
-4.76819
-6.13632
-6.4514
-4.78564
-5.96436
-6.90859
-6.81988
-4.82741
-4.85845
-5.51481
-5.33708
20.7504
22.2723
21.3833
22.5597
21.8177
22.6584
21.7875
21.0478
22.2699
21.3665
22.6331
20.5397
22.0762
30.1412
33.0414
35.5163
43.8111
41.6965
30.1445
47.4468
46.585
33.6632
39.1997
31.7399
33.8508
42.4838
46.4289
49.1595
37.2133
39.0448
36.0081
45.6389
43.6311
41.7468
38.8186
31.1599
31.3026
31.0455
29.8433
29.6639
28.3619
28.8397
29.0852
28.5996
27.4806
27.6135
17.846
17.1794
16.9708
16.529
18.9367
18.4372
16.8608
18.2091
17.4794
16.6101
15.7921
16.0051
17.6475
19.0994
19.2831
16.6375
16.0857
18.2233
15.5398
29.6122
29.8959
29.795
29.7945
30.5328
30.3579
30.1502
29.9984
29.9921
30.3978
31.1429
30.8696
31.2972
-13.6944
-9.35105
-6.57487
-10.4612
-8.71487
-3.9653
-4.1066
-4.12165
-2.89929
-7.07411
-4.76899
-13.6302
-16.9989
-7.4269
-4.36255
-10.9457
-8.17547
-16.994
-11.6544
-17.6099
-10.5569
-10.3429
-10.2474
-10.3301
-10.4149
-10.0501
-10.1913
-10.2969
-10.6871
-10.2583
-10.1311
-10.6391
-10.3949
-10.1969
-10.242
-10.2317
-10.2293
-9.90961
-10.2371
-11.8061
-13.0949
-11.038
-10.9803
-10.5954
-12.7584
-11.5012
-11.592
-11.2218
-11.4047
-12.6469
-14.6127
-12.0582
-11.8801
-10.9656
-9.02973
-10.6028
-10.1837
-9.36738
-10.8202
-12.5892
-10.1787
-8.39295
-9.38334
-8.74535
-10.5297
-9.49963
-3.39589
-3.84885
-4.13065
-4.0292
-4.33763
-11.5875
-13.2032
-12.3368
-13.7011
-17.8006
-12.0286
-15.5365
-17.2811
-17.0769
-22.7852
-23.9526
-19.3204
-19.8688
-20.3757
-15.7808
-1.67692
-2.04933
-1.85528
-2.94381
-2.6973
-2.31674
-2.84628
-1.98916
-3.10617
-1.22972
-1.13445
-2.40816
-2.64056
-2.52737
-0.267976
-1.41795
-2.37185
-1.59522
11.3168
9.08929
4.17375
11.821
-3.20598
-14.2113
11.3994
0.920525
10.6579
4.39618
5.13715
-26.9664
-21.3327
-40.5986
-2.04635
-2.74783
-5.14468
-17.3138
-8.6534
-1.98258
-19.7495
-19.3006
-19.4365
-17.9366
-18.3014
-17.2476
-17.0803
-16.8887
-18.2452
-18.4026
-16.5605
-17.1555
-17.6438
-16.7786
-13.9989
-12.3625
-13.0106
-14.8578
-10.6237
-11.3424
-12.7007
-14.7703
-12.4126
-11.97
-14.7102
-13.5738
-9.79433
-10.5674
-9.71444
-10.2252
-10.3295
-10.6095
-6.77116
-7.65475
-6.51771
-9.12192
-12.5942
-7.99256
-15.121
-13.6926
-15.1257
-14.8777
-4.33734
-4.59477
-4.89154
-6.65805
-9.08716
-10.075
-11.0524
-11.6738
-5.83975
-9.01242
-6.41531
-6.51192
-6.60222
-8.30679
-8.40386
-7.78552
-4.97945
-4.94604
-6.07627
-3.13917
-3.18753
-6.28788
-8.39298
-5.30492
-4.22116
-3.05364
-2.53633
-6.79235
-4.31364
-4.6635
-6.09638
-4.78507
10.3984
10.998
8.07256
8.41037
11.1351
9.21739
8.73939
9.41157
9.92564
9.369
8.32546
8.85346
9.01346
8.05367
10.8735
-14.5877
-10.7358
-12.0772
-13.8573
-15.6248
-14.2753
-10.7509
-14.6404
-8.14751
-7.7503
-8.56304
-8.43305
-8.51979
-8.83914
-8.80365
-8.06362
-8.86774
-8.94879
-8.31391
-9.10948
-9.86929
-9.47226
-8.32087
-8.41083
-9.5607
-9.41798
-9.55377
-8.66232
-9.29482
-8.22169
-8.71291
-7.84492
-9.1404
-8.74759
-9.26826
-8.54865
-8.27436
-8.8663
-11.0037
-10.7606
-11.2846
-11.0321
-10.8287
-11.2419
-11.8487
-13.0495
-12.4286
-11.8411
-11.4924
-12.1186
-12.0582
-12.8558
-12.4104
-11.6333
-12.05
-12.3341
-1.55953
-1.29412
-1.29284
-1.69965
-1.51081
-1.8385
-1.3509
-1.40708
-1.75451
-1.87577
-1.53254
-2.0551
-2.54089
-2.6239
-1.4703
-1.96315
-1.88563
-1.58305
-2.4801
-2.35263
-1.79826
-1.74645
30.5811
30.2415
30.7141
30.3355
29.7754
30.4212
30.9396
29.8726
30.0006
29.8835
29.2944
29.0159
29.2279
30.1976
29.708
29.4924
-13.4541
-12.9022
-11.5425
-13.6021
-15.6443
-14.6693
-11.6294
-11.6855
-12.0615
-15.436
-13.6072
-12.5163
-13.9515
-12.124
-15.6934
-14.2661
-15.4261
-16.998
-6.10502
-5.87101
-5.16878
-5.72237
-5.74162
-6.21917
-5.88984
-4.95786
-5.24928
-5.02297
-6.3021
-6.43475
-6.1646
-6.38585
-5.46775
-6.15308
5.27903
5.98725
7.50234
5.97049
4.76777
6.71222
5.13039
7.11632
7.62209
5.74069
6.35122
6.25919
6.00409
7.46382
5.50004
3.88168
5.28247
3.88249
4.30958
5.25667
3.96369
2.23711
-0.560631
-0.604724
-2.21203
-1.9392
1.84117
-3.10815
7.24362
6.13268
-4.90855
0.844145
5.68093
4.20542
-1.9461
1.65685
-12.7705
-12.6581
-12.1407
-11.8468
-11.8165
-12.0231
-11.9491
-11.9308
-11.7367
-10.8892
-10.8331
-11.0745
-3.98514
-3.87124
-4.12535
-3.53433
-3.84462
-4.01076
-4.13128
-4.24543
-3.41121
-3.68133
-3.69957
-3.59343
-4.24318
-3.82923
-3.40088
-3.51525
-3.91422
-11.1354
-11.3512
-11.0433
-11.0397
-11.078
-11.3899
-11.3031
-10.9222
-11.2484
-11.0095
-10.9892
-11.1937
-11.5334
-11.782
-11.0791
-11.4059
-11.8069
-10.9323
-6.82362
-8.17375
-7.7372
-7.04446
-8.67179
-8.48251
-6.7868
-7.8626
-9.13202
-7.10478
-6.83989
-7.06914
-6.82535
-7.92098
-7.03844
-6.72974
-7.37726
-7.67283
-8.71429
-8.10811
-8.95043
-8.84925
-6.13468
-6.29001
-7.94283
-7.65323
-6.59445
-7.02055
-8.4793
-8.36495
-7.1214
-6.88585
11.985
11.6671
6.23853
9.05444
10.9348
11.7343
11.5804
10.2947
7.42938
10.2763
7.16405
9.69844
9.57075
8.11996
30.9203
30.5717
29.4154
29.6092
29.6552
29.9947
30.661
30.3873
29.3381
29.5357
29.4505
30.1052
29.9298
30.4738
-1.57565
-1.39985
-1.91109
-1.93571
-1.7664
-2.01162
-1.63084
-1.86479
-1.56875
-1.96323
-2.22862
-2.12879
-1.57523
-1.7156
-2.10285
0.675583
0.924172
3.4372
3.60016
0.334359
1.7322
1.71442
1.974
3.34726
3.51849
-0.286904
0.0578001
0.63719
1.16254
2.10635
0.871199
1.81768
-12.0353
-11.142
-10.3655
-10.9181
-12.61
-11.2409
-10.2453
-11.9508
-11.6025
-12.553
-10.8029
-12.1015
-11.9418
-12.1364
-10.4194
-10.3539
-11.4766
-12.9033
-11.9779
-10.5317
-11.7073
-10.2962
-10.2383
-9.41661
-9.51787
-9.9585
-11.2619
-11.8336
-10.2603
-10.2174
-10.1072
-11.5171
-10.9903
-11.1543
-10.9414
-11.5823
-10.8869
-9.15702
-9.22673
-9.10858
-9.21079
-8.85498
-8.8577
-8.60345
-8.90434
-8.76057
-8.36706
-8.47648
-8.65203
-8.57871
-8.87484
-8.35804
-8.54343
-11.8773
-11.9727
-11.9092
-12.0685
-11.3956
-12.1331
-11.2623
-12.0794
-11.9575
-11.7572
-11.2633
-11.2494
-10.3524
-10.7206
-10.6426
-11.4698
-11.3166
-11.1295
8.58164
8.75898
7.8353
7.51251
4.83773
2.94374
9.73561
9.06945
2.08846
9.96561
7.41644
6.24483
3.36089
6.04857
8.51519
9.06029
7.72709
3.88838
5.18292
4.59259
4.7592
4.78031
5.99761
6.689
5.50443
8.40345
8.19392
8.40641
6.62765
8.05529
7.1534
5.76757
24.5968
23.981
23.3278
24.3355
25.5111
24.2086
25.7308
25.7951
24.3889
23.6341
22.7167
24.2817
23.0906
26.8886
25.9284
-6.34524
-6.14169
-5.63015
-5.28249
-7.0713
-6.01887
-6.03747
-5.44239
-6.33612
-5.85261
-6.41533
-4.94831
-5.12771
-4.47827
-5.42101
-5.29278
-9.45837
-9.18225
-9.79079
-9.29123
-9.01813
-8.99408
-7.30751
-8.91112
-8.9552
-9.72001
-7.41076
-8.06941
-8.85163
-28.4014
-22.0004
-20.2979
-14.5379
-28.3929
-33.7441
-9.83221
-17.2539
-13.8793
-19.399
-20.8655
-25.5243
-22.9664
25.1378
23.9633
28.0721
25.5431
26.9164
28.2363
26.3644
23.74
21.827
22.6802
25.3722
26.6757
25.6329
17.9316
19.764
26.0008
25.2963
19.419
17.8589
20.334
6.13201
6.01305
5.88904
4.98378
5.96079
5.30048
4.98165
5.64945
5.98493
5.94147
5.44257
6.27441
6.05666
5.60861
-2.88375
-2.40049
-2.55103
-2.80937
-2.37424
-2.91219
-3.11894
-3.15613
-2.83142
-2.98887
-3.18579
-3.34138
-3.11662
-2.37323
-2.50187
-2.21293
-2.19731
-2.74533
-11.9056
-11.9956
-11.9855
-12.1985
-12.9647
-12.7225
-11.8189
-12.1811
-11.705
-12.7746
-11.9772
-12.6242
-13.0255
-11.101
-11.8962
-11.118
-12.2876
-12.906
-12.5782
-12.16
-3.97175
-3.39848
-3.22077
-3.69352
-3.70726
-10.7265
-10.3294
-11.8911
-11.4349
-10.5126
-11.2405
-10.3231
-10.7157
-11.0252
-11.2239
-10.4239
-10.9139
-10.369
-10.2212
-11.0576
-10.6979
-11.2397
-10.5461
-11.0317
-9.9439
-11.3432
-11.3308
-10.8551
-11.6348
-11.2042
9.48509
9.79076
9.80305
9.54031
8.9938
8.89474
9.26701
9.67537
10.1878
10.1807
9.629
28.9334
29.5095
27.912
27.8939
28.8899
30.1194
30.5076
28.9902
28.9951
31.4555
30.2615
33.052
28.7404
28.1183
30.057
10.554
9.75587
6.89072
8.24554
7.66767
9.05498
7.47477
6.0708
6.22287
7.50049
9.09097
8.15069
9.55606
6.3136
6.87667
8.29573
4.69549
4.75297
6.76754
4.27362
3.05643
21.7482
22.7754
22.164
21.1386
21.6172
20.9843
18.3541
17.3945
15.7692
16.3298
16.6582
16.4846
19.5069
19.4857
17.451
18.0958
20.3202
36.0026
38.1503
38.5704
36.0407
35.1466
36.8418
36.0433
36.7594
38.1136
35.356
39.0339
35.828
34.8687
41.4761
40.0575
39.9837
36.6358
39.6632
40.6468
37.0818
-3.20466
-2.49832
1.18598
0.0344289
6.47824
-2.68215
-1.20073
3.9703
2.0411
4.48014
9.66473
9.07199
3.8854
7.33832
-12.9434
-12.8082
-12.775
-12.6195
-12.7892
-12.9615
-12.6634
-12.5532
-12.7298
-12.4582
-12.4835
-12.4324
-12.4958
-12.3375
-10.5101
-10.1901
-10.1115
-10.4368
-10.0072
-10.4752
-10.0572
-10.5513
-10.2847
-10.3966
-10.2725
-0.313444
-0.1753
-0.101042
-0.363985
-0.567522
-0.191699
-0.00547596
-0.139276
-0.0931637
-0.307363
0.0923743
0.107365
-0.170523
-0.0936338
-0.53474
-8.27076
-8.41553
-8.35076
-8.45902
-8.34784
-8.61203
-8.78035
-8.44273
-8.68788
-9.30684
-9.34845
-9.1546
-9.1701
-8.67669
-8.48281
-8.45245
-8.68757
-8.54835
-9.97739
-12.6836
-9.85058
-11.0941
-10.0575
-12.9762
-11.7018
-10.9444
-9.27266
-10.2986
-11.646
-9.29168
-11.0502
-11.7074
-11.1116
-12.1758
-10.9016
-11.0659
-8.46201
-11.3217
-10.717
35.8018
39.4271
37.9328
39.7267
35.8231
40.0739
40.8881
38.199
42.4363
44.0871
40.6377
32.5106
33.4228
37.7705
33.1682
0.875424
1.19798
-0.761111
-0.352283
1.4784
-0.295074
1.97975
0.362824
0.221682
-0.29868
18.7559
18.7113
19.3535
19.3578
17.9592
19.1756
19.747
19.6247
19.6622
19.5891