/*--------------------------------*- C++ -*----------------------------------*\
  =========                 |
  \\      /  F ield         | OpenFOAM: The Open Source CFD Toolbox
   \\    /   O peration     | Website:  https://openfoam.org
    \\  /    A nd           | Version:  10
     \\/     M anipulation  |
\*---------------------------------------------------------------------------*/
FoamFile
{
    format      ascii;
    class       surfaceScalarField;
    location    "6";
    object      phi;
}
// * * * * * * * * * * * * * * * * * * * * * * * * * * * * * * * * * * * * * //

dimensions      [0 3 -1 0 0 0 0];

internalField   nonuniform List<scalar> 
146459
(
-1.83314
2.58692
-1.16307
0.409296
0.820726
-1.05906
-1.59481
-3.24195
4.55115
1.27771
-1.06162
-1.3596
-2.37005
-0.763949
1.99644
1.13755
-0.593994
-1.77605
1.75707
-2.31051
-0.505618
6.91223
3.13124
-8.64389
-1.39958
-2.47152
3.90143
5.48231
-0.4019
-2.83704
0.770284
1.3028
-2.55086
-2.06223
3.35655
1.31516
-25.9203
46.3529
-23.2324
2.79977
-28.0976
18.912
-16.7346
28.0107
10.082
-16.8803
-21.2124
53.8476
9.8904
-35.7272
-14.0028
-22.469
8.37418
21.1384
-6.68647
-4.3699
51.1407
23.8453
-18.9406
-1.74874
-27.7965
-34.4212
39.7488
-10.9685
12.9546
-29.7826
-38.4018
8.49275
41.0274
-7.56342
-20.5095
11.6332
5.59357
23.8007
7.92766
23.4951
-3.98359
-27.4392
-0.0296588
22.5421
-14.5848
16.5203
5.75022
1.22464
-9.93771
10.738
15.7199
18.9177
-18.1384
4.97093
-11.4777
21.5127
8.88271
28.3846
-16.8362
30.16
-41.7084
13.6374
4.80953
-8.04877
22.1065
-14.0874
-28.8685
16.0279
-11.6242
-3.73975
8.29002
-25.2742
22.3071
16.6045
-9.92413
14.8099
32.8316
4.00431
-14.5288
8.79486
9.57189
-3.52157
-4.14272
0.816542
6.84775
-6.1792
-3.68958
6.34721
7.14123
-6.57071
-4.71324
0.506718
4.28707
2.34744
7.53355
3.55079
-10.5776
-17.6435
-17.0879
19.8865
14.8449
-17.4993
21.3036
-3.94171
0.137333
-5.12399
-0.361695
-12.0136
-15.3035
-1.39851
-0.941552
-11.4621
-5.27387
10.4782
6.2578
-3.88239
16.9908
8.19521
-15.6507
-2.87092
14.5799
-14.6881
-6.08658
-23.4704
4.31305
15.275
-16.4511
-7.381
2.94363
-16.8036
-3.22796
-8.5185
10.0112
-10.972
-21.2207
-10.8863
-8.42164
-2.30287
18.1524
-7.42794
-8.20173
-0.785487
0.565583
-11.6985
21.6695
-12.2739
-8.46139
0.663895
-0.404245
9.35471
-1.05816
1.17218
-9.46874
-5.40613
6.29946
3.12819
9.01092
-8.95792
-3.18119
-5.64525
8.77344
11.0514
0.438954
-12.5485
-0.804688
1.54273
8.27287
-0.318594
-11.3614
12.8521
1.282
-9.80097
-13.9226
1.41946
-12.9592
0.230382
-0.84491
-0.0159803
0.630508
-0.810554
0.128173
0.912763
-0.328054
-0.554468
0.0719679
0.210625
-0.183548
-0.871987
0.93286
-0.594062
-0.533225
-0.407244
0.924489
-0.758112
-0.103167
1.26981
0.409624
-0.0691936
-1.61024
0.0346471
0.347962
0.887197
-0.496658
-0.0231635
0.342241
-0.429275
-1.14172
-0.586006
1.32048
-0.605254
-0.720014
0.175009
-0.328759
-0.432256
-0.240861
-0.357068
-0.721213
0.473027
-0.755021
-4.14233
10.2523
6.74008
-12.8501
-1.92911
-17.1236
5.53008
13.5226
-16.2352
10.1638
-9.78173
-23.5771
-6.37711
15.9316
-9.55446
-12.1829
13.6712
4.04182
7.81032
-23.9329
6.34081
-10.7497
9.01525
-6.41738
2.46257
-5.06044
-0.616655
5.58769
4.04421
0.137209
-1.26075
-5.29384
7.95785
-1.61447
-6.20617
12.1903
4.96729
-9.19971
6.44625
5.12736
-6.90943
9.37199
0.327438
6.91357
-8.50176
-9.55505
8.26802
13.2394
-8.27216
0.00414351
-6.52483
0.867116
-6.28686
11.9446
-8.97521
-4.60694
7.05732
6.03378
-6.98791
9.84407
-8.88994
0.149503
5.88428
-7.48235
-7.38934
15.7388
-0.301613
-9.25448
0.580878
-6.58847
-4.17269
-10.6337
7.32406
-10.7382
1.95857
-0.0552196
-8.65692
-2.02606
-7.62171
-1.68799
-4.53805
6.43896
-9.52263
5.49069
-17.0166
10.7429
-0.336933
-0.561858
9.2378
9.9796
-13.1458
-0.991059
4.37825
12.8253
-9.86547
-7.33813
10.6336
0.444008
-6.69932
4.38959
19.0693
6.51974
-11.9993
10.5718
-5.09219
-9.90805
20.8174
6.17027
4.92729
-23.0587
11.9611
4.72452
-10.5536
5.18353
-10.1217
16.7907
6.99164
-15.4209
-8.36148
-5.62315
16.1944
6.21948
12.1486
-3.89132
-13.8804
9.41059
-0.401737
-2.01722
6.76034
18.8446
-2.23341
10.8226
-8.9909
11.0121
3.22174
-2.08526
23.8627
-6.0903
-6.44683
-7.7234
-2.09064
16.2609
-12.7891
-8.94381
15.2861
0.040096
-7.7635
-12.7891
0.0401439
-1.19382
-24.3376
16.5876
6.48497
-19.4842
11.8054
-8.01226
12.4066
-20.3296
-10.06
22.3774
12.4894
-27.6887
-5.13034
2.4294
-3.11002
-18.582
-2.64559
-12.3274
-3.57175
-5.3341
-24.395
-13.6713
-10.7927
-6.86884
11.6779
-0.919728
-3.30563
-7.45254
-5.33344
0.140754
4.99129
0.201396
5.56699
-13.3934
2.49292
-9.40859
8.52858
1.02076
8.9646
-12.8062
-1.47996
4.04615
9.11171
-13.4582
4.70782
7.27044
-0.920774
-2.45022
-10.0872
7.41297
-3.3414
11.1742
-3.13038
6.98333
12.7195
1.30226
10.1569
12.9934
0.111268
-6.15523
8.18613
-2.14217
-8.37863
11.2074
-2.71746
1.32382
-15.8577
-15.1205
-1.37112
13.5961
2.89551
11.8119
-25.6085
10.4408
16.72
7.70223
-16.2361
-7.49678
8.4678
15.749
0.205446
1.19536
9.12175
0.890245
11.5439
3.24754
-0.0159007
17.6055
-10.6462
22.1742
-6.07152
5.37801
10.7891
-10.0956
-8.36971
4.68083
-2.38264
-17.6052
5.74695
3.48856
-6.54149
-9.87178
21.7913
6.18314
-8.04381
-4.14045
-5.73133
-3.86203
1.5182
-17.0516
19.3954
21.0222
-21.6301
-3.25413
3.99801
13.631
3.39317
16.7523
-1.86083
-13.3733
5.33447
19.2066
-7.78877
5.82133
12.146
-13.9693
15.6841
3.92991
-19.5808
-0.0331989
-2.02444
17.7086
-13.9642
16.0332
-1.31815
21.0145
-14.3618
19.6809
-15.1777
0.809196
6.07108
9.60772
-16.488
4.41903
6.74422
-10.3541
8.19355
7.09798
-10.8725
-2.89804
17.6456
-6.55397
11.4792
-8.30617
0.0541101
6.69011
9.66183
7.54283
-12.3137
9.36693
-4.59605
-2.52708
15.4852
-5.41528
0.162878
6.9351
0.97912
-1.81361
10.641
6.85298
14.9669
11.8008
10.1012
-4.8192
-17.0828
-4.41284
8.79245
7.42117
5.68837
-12.2664
0.788403
17.9741
-6.49615
-6.89947
3.42556
-6.18502
11.8734
-16.7314
-4.99644
12.3532
9.37458
11.1815
-6.87477
-21.038
15.8142
-9.05623
-15.4007
8.64268
1.73224
8.02309
6.05889
-5.90545
18.5672
-20.7502
8.18001
7.21087
2.4497
-17.1275
7.46692
6.48718
11.6113
-10.8876
-5.92433
-17.4829
6.07308
17.3341
-20.9654
3.6246
11.4165
-4.841
-6.0796
-10.0448
-14.7886
-7.53531
5.6328
6.98736
-10.1705
12.12
11.628
0.0119796
-0.0286902
1.42696
-5.11031
-6.65525
10.3386
-8.85671
16.3568
-11.6252
10.1394
12.473
-11.5652
-4.03055
6.80184
-10.6858
-1.43419
2.28201
-5.05485
-11.2499
9.83526
6.46953
-10.0067
4.95186
9.09453
-2.29564
8.7433
-15.5422
-0.91218
7.35085
-15.9464
6.29996
6.95364
1.87787
-1.48066
-0.656359
-7.23548
0.163496
7.72835
-8.99817
-1.36766
9.70947
13.9568
0.524474
-3.47627
-11.005
14.749
-9.79037
-1.98216
-1.19402
-0.212548
-6.12389
0.394307
5.94213
-8.94409
8.73154
-3.97711
-6.90771
7.56792
3.31691
8.34197
-12.3191
-8.80303
-0.141054
12.2698
1.03173
0.434999
-13.7365
-0.190314
12.4601
0.837037
-8.60834
8.72447
0.809684
-9.09915
9.24624
-0.712087
1.1355
-7.80722
0.54782
3.47403
-6.16049
-10.6625
7.79153
-12.7659
15.6368
-10.4548
-0.2077
-4.67103
17.4157
-4.95318
7.25184
-7.49499
-9.30356
9.54671
-3.73969
10.9915
6.01895
11.0122
-10.066
-6.96514
-4.43584
8.17553
-5.25324
-10.4173
-3.08236
1.32865
7.07471
13.7083
-17.057
-3.72604
-11.5105
13.9142
3.58805
-18.9073
-13.4464
-1.14646
-19.1155
9.25711
-0.877084
5.42526
-6.02018
1.472
-9.02635
8.14927
-7.84707
0.273786
-5.17222
-5.8353
-2.01177
-8.17797
10.6865
2.40847
-22.1213
3.38227
1.28403
-5.86401
0.0287067
-10.24
6.78445
-5.0328
3.40816
-8.58033
-0.248507
-4.78429
6.41617
-1.45514
-9.73572
4.77469
5.01076
0.421616
0.983792
3.0697
4.01987
-8.54471
-0.223231
3.29293
-7.08244
6.66306
0.196152
7.65269
-10.7153
3.04442
-4.48728
6.42864
4.72169
2.8822
0.283223
-5.48905
-0.932151
2.4039
0.325521
-1.0775
-2.54567
3.29765
-0.579057
-0.490426
1.395
-0.0195975
-0.971257
1.53239
-0.541532
-1.6385
2.86597
-1.24706
-3.20616
6.3031
-4.73545
-0.755832
-2.45032
-0.0931376
2.73777
-3.72214
-0.444657
-0.629687
0.103086
-0.618061
-0.405653
1.38552
-2.09672
-6.19918
5.98208
-17.7944
18.0115
-21.6391
2.90255
12.5374
-2.43851
-10.4367
-8.76394
17.3915
-11.1847
-8.64532
11.1432
-5.83805
12.0863
-4.46383
14.4053
-3.95938
9.58188
10.3799
-2.4457
-19.1188
4.54182
-16.1198
-0.752698
-0.921937
-7.65067
-18.9058
12.1742
-6.67309
7.13518
-12.6363
12.4136
-0.992084
-2.17997
6.72179
-16.7695
-4.9552
8.53921
8.82954
-0.941525
0.3387
0.982641
-0.379816
2.01053
-0.329762
-2.62229
2.34923
0.0201314
1.87003
-2.21992
-1.1075
-2.86516
-1.36683
5.3395
-0.020136
-1.48626
0.398897
-2.8853
0.64644
1.39167
-2.01798
0.142819
1.33396
0.536069
1.3588
-14.1764
13.404
-13.9269
14.6992
2.5355
-3.72387
-12.988
3.77897
11.6464
-20.3671
4.94176
6.11494
13.8716
-16.2076
-5.07041
7.60591
13.4028
-6.38699
-0.900914
-0.48056
0.712792
13.1706
-0.0140072
13.8856
11.6324
13.4051
6.562
-6.72095
-15.0688
12.6847
9.10503
-11.5483
5.0181
-0.190783
-2.68339
-3.86966
-8.51576
-4.80021
-9.43145
7.67205
-7.56193
4.90797
-3.07195
13.1547
-11.6163
3.30831
-4.84669
-8.70543
14.81
7.05014
-6.98161
-5.59349
-14.9446
-3.65332
10.0424
-6.73409
-9.8629
-4.18764
6.48862
-10.2648
-4.39835
-10.9217
-2.16948
-3.47568
-0.0272183
5.67238
7.32548
-3.31429
-0.889545
-3.12164
-4.63435
1.15017
2.01451
1.46967
-1.75126
6.25699
-4.50573
3.03911
-4.79037
-6.26221
0.6629
18.9533
-13.3539
4.44106
-11.204
0.500743
-12.7809
-5.79827
19.2421
-10.2266
-5.55784
3.00347
13.6668
-10.7577
-15.2085
12.2994
15.0967
-7.22815
-23.6121
2.62781
1.44427
2.82639
-5.40837
1.1377
3.75675
-4.41573
2.10325
6.6054
-5.95332
-4.99599
4.34391
0.589738
5.42348
0.592182
0.587375
2.82876
0.821666
3.52246
1.26223
-5.15315
-1.51745
-2.93606
-0.217442
-0.529522
-3.81996
5.58775
-1.23827
-1.68649
1.97863
0.939097
0.239406
-6.33165
1.20292
-3.19988
-2.70125
-6.57997
5.46127
-5.67789
1.29015
1.28316
-6.99708
-0.86285
-0.898126
-4.81899
-5.33782
-3.65325
4.03828
-7.84944
-5.28804
5.49748
7.63999
-0.696816
-2.49246
-4.66016
8.45437
-4.23077
-4.92041
-4.61753
4.97886
8.09303
8.52908
-4.28195
-8.47789
-0.509127
4.42068
9.78299
-3.55083
-8.72462
1.43127
3.06369
10.6831
-0.206792
-7.72134
3.55897
-1.16926
-10.834
-11.7215
7.00137
2.8006
-6.36532
1.76235
5.27036
-7.86402
0.831311
-6.1198
3.86206
4.02009
-14.6079
-0.253305
7.96251
6.89869
-5.13082
-0.976526
-8.50055
8.44793
-1.44237
-3.11544
-3.89012
-5.18842
7.51655
-10.2362
4.79446
-5.30481
-10.0622
2.42106
-3.20194
6.05124
-2.73587
9.01899
8.5074
-4.39271
-5.55707
-2.07649
2.71987
-11.9387
4.03808
0.0748484
7.82579
-5.5991
-7.31614
9.26473
-1.52435
-6.8959
6.58254
-2.77759
-8.19766
4.16835
0.3377
-5.02229
1.78607
3.31107
-4.7895
-5.83188
2.75247
-9.09144
-15.1378
12.4267
15.2959
-12.5848
-2.34159
-17.3882
8.57784
11.152
-26.4414
10.2114
13.8885
9.12377
-13.3238
-13.1882
-9.61893
-7.69874
0.437328
-12.3081
-0.997606
12.8683
-0.830006
11.0764
-9.80911
12.7929
-13.4375
-0.18543
-11.2793
10.1539
9.70329
0.523645
-1.76046
-13.901
-15.8809
15.5132
10.579
9.65365
-11.901
15.8658
-12.6918
-1.10205
2.21002
-2.22505
-1.19456
17.622
-14.2175
0.496554
-2.5438
2.42781
-0.380569
0.160965
0.335589
-1.87354
-0.477068
-0.560199
2.91081
-1.71258
-9.21266
-2.84803
6.78489
5.27581
0.0137823
-1.42581
-7.80064
4.08481
-2.88752
-2.90987
-0.640279
4.24802
-7.21264
4.31046
0.054148
-1.15376
-6.0451
-0.0268244
-0.234121
0.596535
-3.72438
-0.260371
2.12798
-4.54746
-0.691039
6.83565
3.35905
3.8932
8.38869
-15.2353
2.95346
8.59574
-11.8616
7.15902
-18.6598
-5.65786
11.4021
12.9156
-15.8457
0.0906965
-2.90484
-6.41804
-12.1406
17.0637
1.49495
8.3056
-4.80695
-9.91669
7.74424
-7.44949
8.09394
-0.190312
16.5303
-9.33892
-1.51186
-1.01078
-16.2687
11.0064
8.61199
-24.4253
14.8769
-16.0111
7.49191
-14.7256
0.322187
17.6855
-2.71781
10.4506
-5.07914
12.314
21.6624
4.53506
3.80508
-7.15189
-5.37781
12.4321
5.5385
-8.21808
-9.75248
3.73983
4.95048
3.74175
8.73535
-3.40264
-1.52762
3.36048
8.43855
-1.18077
-3.86492
8.40617
-2.70518
4.32501
-5.1339
-12.9169
6.32929
7.63768
-9.51405
5.6162
9.11512
-2.19818
-1.37845
7.06548
7.00012
2.91515
1.44515
6.6879
-10.2174
-2.69924
-0.810744
-17.6248
-13.0965
-4.13378
1.98648
23.685
-21.5377
-17.4742
0.0930871
13.2473
-15.4295
-3.70649
1.6618
-1.89891
-12.8538
16.7392
-8.72446
6.91863
-7.48898
-11.4646
3.52405
11.2264
-4.5897
-14.4174
7.7807
18.2792
3.03749
-10.0903
-7.77848
13.2039
7.72555
9.78891
-6.76115
-10.7533
15.0337
-7.53702
0.228915
-19.6037
8.50032
3.32488
-6.77727
-14.2872
14.0631
-2.96006
-4.67232
-10.3537
-16.0232
-10.1186
6.67117
5.96935
-2.52191
7.76997
-12.9032
-4.98543
-10.2575
13.2795
3.009
-6.03102
11.505
-16.4222
-5.3403
2.90446
0.0773329
8.52324
12.485
3.69904
-13.8574
14.2107
6.31793
0.179831
-6.26727
7.5788
16.1564
-17.5579
-6.17728
14.6696
-6.911
11.9585
-2.98019
1.95607
10.6351
-0.106186
16.2497
-4.77073
4.67737
15.5005
15.4189
1.64871
12.2659
0.860565
16.5416
-1.90167
16.7199
-8.57522
-7.26133
3.74267
12.0939
-9.38138
-2.38315
3.18932
0.956545
-10.6729
0.334988
11.9314
-12.2668
1.29196
6.42738
-9.81814
1.00761
0.538359
4.13167
5.64028
10.788
-10.0009
-5.84527
15.2282
-6.12035
-2.26139
-1.4364
3.22685
-8.22627
-1.12093
2.80082
-10.2469
-1.05464
-8.41132
-4.75307
3.63867
-4.73087
-4.35368
3.38359
9.51384
-8.54375
3.15309
-3.8555
-3.65127
-2.34988
5.77022
-5.68173
-8.18921
3.9745
-6.09076
-12.3273
25.976
-6.74468
-6.90406
4.36355
-16.4129
-0.277865
5.23562
21.6832
-22.5552
-1.03135
29.216
-5.574
-22.6106
6.38536
14.8991
-34.1764
12.8919
21.1887
-16.9845
4.30417
19.6707
2.00112
20.0472
5.94013
-2.27266
18.5547
3.76522
17.1704
1.74572
15.1651
20.4362
-8.10949
-7.66306
34.3272
24.226
28.1423
-16.1346
7.28724
-1.76344
-10.5741
5.05032
-10.9522
16.4544
1.78503
-12.3977
4.48795
-1.98073
9.89045
-4.99077
-12.9159
19.7171
-1.81043
15.0221
-6.44077
-13.5721
-1.3605
3.98493
-11.2252
4.36547
5.09627
19.2604
-19.376
-10.4586
-10.1318
18.44
-7.46293
4.96426
1.13816
-2.56765
-11.336
-5.60916
-0.651749
-3.96168
-5.83831
-9.57599
-16.186
8.28767
-2.23343
-7.70397
-12.4437
-4.58157
-6.8659
-2.55388
-10.9757
5.8256
-9.7031
4.06688
0.2457
1.73867
-7.13269
3.68288
7.5167
0.904793
0.981502
4.59717
-0.167703
-1.67699
3.52417
1.31869
-3.26636
-0.959827
7.90906
-3.67397
1.3124
8.05513
-4.6973
-1.04185
-2.31598
2.89729
7.56533
-2.40749
-1.55394
6.87183
-1.28107
5.46164
-0.951445
-12.0438
-2.62844
15.6237
-8.7774
10.1692
-2.34322
-14.1982
6.62944
-2.16459
9.73333
-1.58292
-0.028809
-7.16566
-2.36599
-11.2607
-10.2212
10.0995
-2.50666
-12.1375
-1.9989
12.0332
2.10319
-5.9039
-20.4318
-3.73933
0.14753
-6.65446
5.81773
10.9864
-10.1496
-19.9663
-0.618443
13.9303
-6.8998
7.80247
-15.2046
14.3019
7.11553
-19.9192
-12.312
-3.22598
11.7986
-5.79257
-6.37126
-10.989
0.479983
13.3763
-3.79355
-10.0627
17.0208
-4.45533
-12.0855
-5.20196
15.7942
2.78404
15.738
-3.91911
-2.9353
11.4928
-13.0128
2.26376
8.1617
-13.3608
-0.534243
-12.3496
2.13115
10.7527
-7.16314
0.214711
6.41419
-2.17802
6.50763
7.01334
6.54663
7.18055
15.627
8.2666
-9.7964
2.23169
-6.41959
-5.5081
7.98616
4.70249
-13.4902
-2.705
10.6871
-2.99195
22.0383
0.244992
-4.94943
-17.3338
13.8596
-1.35792
9.53662
5.1418
-11.3115
20.0293
-3.88718
17.4691
-8.05639
-5.52554
20.9532
-12.087
-12.7535
-22.4076
29.1119
-6.45932
-5.37268
-13.0759
-3.959
-7.8598
-1.61164
14.6132
-13.3818
4.16404
-8.60614
9.61992
16.4553
5.8009
6.54618
-16.0045
8.42363
-5.34914
-18.9866
8.33127
2.30882
-19.7449
5.70392
-11.4515
0.523983
17.2764
-17.0686
6.81493
10.7777
-16.7374
14.8232
29.594
-25.3344
-22.2124
17.9528
-1.54804
16.7424
14.3996
-3.79596
26.698
-10.1773
-12.7248
11.937
-25.4088
29.9328
-16.461
-16.9663
3.56882
14.2165
-31.9674
16.2029
6.23287
9.37727
-41.0189
-20.2791
9.54568
-14.9925
25.413
0.178249
12.898
15.9256
-29.0018
-13.1988
11.1642
28.8549
-26.5255
7.04785
-25.9444
11.1301
-10.2882
49.8646
-33.5775
-2.26652
-14.0206
24.6385
34.5086
-9.28252
-20.4066
31.2901
-22.2612
11.3776
-40.1246
-13.8595
49.5213
6.40733
-3.67164
-33.0304
-3.4226
12.8658
6.54785
-41.6748
-18.9957
-22.212
27.1021
14.1056
-17.1586
5.15418
-6.99125
24.176
-30.3091
26.4787
-20.3455
27.7989
9.2428
-5.51378
-27.0363
28.8784
-0.284327
-36.1473
6.12245
-24.6412
-0.829658
3.25883
-24.1498
-17.6501
21.6262
4.02284
31.4433
17.9819
-29.9479
3.78097
9.06844
-1.52894
-11.3205
-11.7687
11.3517
4.19795
5.70013
-12.7568
-4.71205
-8.63822
14.5389
2.00279
-7.90344
11.158
-16.3081
-3.48813
-4.34096
-2.33364
18.0264
-3.59311
8.32059
-1.06401
5.43655
10.1663
6.50085
11.2148
-3.51187
14.3177
-6.86563
-0.652912
2.85973
4.65881
-4.24622
0.203376
-2.82279
2.35796
-1.79442
-4.80976
0.743671
0.961377
-0.439012
2.34626
-1.16358
2.21836
-1.23927
-1.4181
-1.13065
1.48671
1.9902
1.02773
0.0599819
-5.28717
1.80697
6.33993
-3.23356
-1.85024
0.439204
1.58636
-3.81999
2.71994
-1.1901
0.312825
-1.84266
0.932634
0.820873
0.966429
1.33959
-2.13966
-1.66228
1.49114
1.10377
-1.51279
0.874686
1.64419
1.382
-3.0292
-4.08153
2.84515
2.05726
-2.38671
4.91973
-0.267607
-9.82948
-10.2234
24.0509
-3.99808
-15.1204
-18.1456
23.4364
5.62937
7.96989
-0.251317
-13.3479
-0.359847
-9.13114
6.48365
-8.73712
-12.4324
1.9461
25.0988
-14.6125
-0.847837
12.4663
-6.15441
16.2595
-10.4649
8.50556
-14.9113
8.08148
-16.5725
7.64318
-6.0024
-7.41215
15.3607
-9.26919
11.3483
7.95527
5.29326
3.01097
-4.31545
-5.77339
7.17335
-16.627
0.184447
7.71647
-12.4369
5.78084
-3.9012
-2.0328
0.153161
-1.38847
8.19482
-1.02551
-1.0012
2.40214
-5.79519
4.39425
1.28455
-4.46109
2.17534
7.22826
-8.10985
-3.01961
8.24193
3.8569
-2.49914
-4.64937
3.29161
2.32977
2.81169
-0.854351
-1.1509
-3.78994
-3.45308
-1.86236
-6.15626
0.20404
11.6558
8.35748
-4.48492
-15.5284
-1.21764
5.61359
7.25987
3.48027
3.65956
8.16415
-0.787568
-3.89631
2.66536
5.23434
-12.3846
-13.1077
3.1216
18.1503
-1.80844
-0.60106
-10.6982
4.30618
-7.74205
6.10123
9.21307
2.79459
-6.77332
4.1646
10.6621
10.1208
-10.1009
-1.82839
17.407
-3.00013
18.0005
14.8198
0.0565401
-32.8769
-0.284688
25.3459
-7.06069
-39.6261
10.5293
14.8083
14.2885
2.88779
-14.299
-28.2148
40.8195
-11.3264
-26.6053
27.6108
23.738
41.4287
-37.9354
2.23786
27.1086
12.0823
-11.3354
15.5742
-4.52351
9.16018
-20.4391
-27.5084
20.5775
9.16881
13.2257
-15.3882
17.2538
-22.3927
12.9867
41.7327
11.7078
10.937
-5.391
19.8147
6.70139
-16.8785
8.59823
28.8577
-9.14132
5.48857
-12.5479
10.9254
21.4372
-3.60663
1.9957
2.8263
32.5103
4.04577
6.71508
-26.5975
15.8367
10.4407
26.3442
-32.7391
-0.102195
19.9769
-13.1596
31.4337
-21.0952
36.1892
-16.29
6.44505
46.3596
2.98216
-21.1551
-28.1866
21.6365
18.3647
-20.0243
23.8074
31.4304
-23.8041
45.8216
-0.377685
-0.518669
31.7098
15.1684
-45.372
14.7892
30.0642
-18.596
17.6674
-44.4434
33.4393
-12.0924
-2.90464
14.8797
19.4553
19.1213
23.7957
11.7582
-4.08997
25.7711
10.5193
20.3602
-18.7146
30.9523
2.55146
18.6901
-1.09697
14.8552
0.0882728
16.211
-3.83269
-12.4666
-4.65622
20.264
-15.5195
-3.17024
20.9435
-22.4295
12.7589
0.858094
-16.7872
5.93914
13.0477
-2.77583
21.1867
5.01647
-4.74057
13.7504
3.74902
18.1744
-1.97147
12.4231
-15.3977
-17.2685
-13.3639
10.1916
20.4408
2.74131
-19.0208
-0.989063
15.9263
3.79171
-0.923955
13.0586
14.5404
1.04617
5.60004
15.9878
-22.5854
-1.12568
3.74958
0.552249
13.431
2.97531
10.6412
13.1577
6.06292
9.60089
3.02387
-6.6456
10.1731
16.113
-5.20503
8.02865
-8.08612
5.26251
-0.215216
-3.69939
-1.29042
-9.61419
8.58908
-7.71931
8.74442
-2.96932
-12.059
5.41415
-6.05998
10.3771
4.27191
-4.79231
-1.48288
-6.32412
2.18474
-7.74195
11.8813
4.87065
-0.817628
-2.25656
9.31195
-6.58717
12.3593
-12.5723
5.41532
-0.929129
-9.41222
-6.85948
-9.18804
1.4264
6.58245
-0.435521
-0.757549
-5.38938
16.8607
-18.0202
-5.81359
4.64174
-0.340922
-5.90819
8.41958
-6.69243
-7.43206
5.70491
3.74021
1.83601
2.84335
-8.8729
-10.6741
6.89356
12.6534
1.80022
4.37396
-12.8666
7.45132
-14.524
-9.54565
6.16731
-6.48881
9.86716
5.58206
-7.6764
-7.58534
3.12107
1.91374
2.55053
8.99813
-12.2095
6.97375
4.95777
-2.93339
4.89394
5.20087
1.85365
5.64215
-8.89267
10.1779
3.60869
-0.194683
-5.12564
-3.10926
16.4244
-8.18946
-26.6182
1.12228
13.9931
11.5028
-1.60134
-26.4938
1.47693
-16.0921
-2.59875
13.5652
8.14931
-0.987011
-23.2544
-20.6329
10.0345
11.7207
0.207634
-22.4418
-5.35324
12.2784
-17.9947
10.0427
-19.2615
1.47438
18.0952
2.3541
0.785437
-21.2347
7.82534
11.7045
-1.43464
-6.856
-4.58721
6.09929
5.34392
-13.6327
-8.48389
15.2606
-12.8904
13.5045
7.2112
2.00215
-12.5385
-13.1868
11.2586
2.13286
-14.5342
-4.60517
18.5926
-0.482906
-3.3675
-17.8708
16.6511
-24.1896
3.08197
17.7402
-2.15344
-25.7122
3.67597
-20.6507
0.626439
-16.5846
15.0614
3.41717
-21.935
0.360125
-22.6551
-14.2223
-17.4036
3.98277
13.6165
-0.195712
-8.43448
5.20894
-14.178
-1.74793
6.4659
5.03601
-9.75398
12.3215
6.07162
-20.1411
1.44632
11.1525
-0.277312
7.30151
0.610711
19.0689
8.88851
-15.4799
-12.4776
11.8062
7.9908
-0.728031
-17.0509
10.9712
17.8859
-5.54897
-2.6134
9.35626
-12.7547
11.0324
2.3066
6.85169
-3.90857
2.26583
15.927
4.54118
-15.0045
5.59624
-10.6594
4.46088
17.1696
-5.05582
13.4072
4.92673
9.05455
16.2938
-9.42133
26.9227
5.09734
10.003
0.694109
-15.7944
10.2054
-11.6908
6.58276
-4.67551
1.08907
13.7918
-2.85124
8.17873
3.4313
-0.314728
-14.8073
-8.65717
-3.39997
13.1462
8.34673
-4.0733
2.67927
-6.95269
5.66101
7.93771
-4.36713
-9.23159
11.4277
2.74838
-8.51507
0.734989
12.0355
-4.83279
13.1267
-4.04494
-7.58698
2.36111
2.54756
6.02891
-10.4543
9.60185
-6.62653
8.20779
-1.08686
6.51633
1.39968
-5.43459
-2.48141
2.21577
2.89451
1.40605
-3.36532
2.43479
3.1463
-0.743271
-1.22237
3.84803
7.73703
-8.69055
-1.86449
8.52139
-4.22212
-3.25297
9.62702
-3.09826
-3.2758
2.53356
-4.94754
-0.838984
3.02123
-1.80822
-1.95628
-5.55565
6.71239
3.7317
2.16078
3.73455
-6.40507
4.58113
-5.67973
-6.95152
-4.93723
4.61576
7.273
-9.16431
0.924944
1.28784
-2.42168
-3.01384
0.498282
6.7717
-8.52503
-0.66834
5.83228
-8.65287
9.59229
-6.59707
17.0451
-4.41215
-7.76599
7.13468
-8.84693
2.63719
-5.52854
6.06614
-8.35184
-0.00286449
-0.17033
-4.19318
-9.98823
-9.09312
0.214246
0.0319435
13.3925
-0.491687
-11.2519
-1.64892
16.4198
15.7912
-19.8454
-12.3656
3.96899
10.9341
1.51666
12.1025
5.25901
14.3663
3.06305
-1.63808
13.0622
12.2382
24.066
-12.2229
-3.56431
-8.27886
0.502102
-1.78583
25.3498
-15.1198
-0.589461
16.2114
-15.2402
22.7206
-14.6834
-11.6015
-0.994105
21.9288
23.2387
-17.0622
-6.60334
0.426857
0.603811
21.6408
10.8462
-13.4421
-14.4663
15.5837
-1.67441
-1.01251
13.4852
-6.51058
-14.7761
15.175
13.2008
-0.27249
2.8599
-15.7882
1.79592
14.0177
-2.61277
21.78
16.6808
-23.0956
-15.3652
-3.13082
10.925
13.9858
5.09999
8.45001
11.7821
2.41534
-14.47
-1.65751
15.2356
12.1932
12.7495
3.12991
-23.3656
-19.4441
6.91452
11.5284
1.00116
-12.7513
-1.05533
-5.63748
1.13589
17.387
-6.32973
15.1131
0.00906849
-11.9923
10.2419
9.97118
2.84915
-13.1851
-18.8352
4.93421
20.8155
-13.0592
-6.8313
16.312
-10.201
-1.30331
1.0691
-1.12848
1.36269
0.778751
-2.53681
0.454758
1.73992
-1.67395
0.712777
0.213777
2.59524
-1.89823
-0.0634164
0.833159
-2.34938
-2.08566
0.826201
0.918553
-1.80817
0.822565
2.51116
-2.50752
-1.68092
2.71726
-0.915644
-0.233726
-1.01862
2.16799
1.77566
-0.735494
-1.95581
0.996099
-0.75194
1.5315
0.797691
-1.20645
-1.26519
0.112873
1.24634
-3.18829
-1.33676
-10.3335
14.721
-15.5856
11.1981
7.83295
-0.140174
-18.0263
0.905633
-3.17386
10.1012
-4.53914
20.1657
-24.8947
-1.15086
5.36805
20.6775
-13.7968
-1.50704
-9.59082
1.61085
-5.42136
-11.7751
-3.18512
-15.7603
14.4063
-18.5727
14.2367
-12.1253
-20.2441
18.2516
-11.2825
-8.47609
20.4458
-9.97555
-4.17392
-8.40533
-0.718013
-2.15919
2.98383
-17.1521
5.7629
-19.117
4.24543
7.80393
-12.0494
9.52034
-8.21547
2.94057
1.55951
-2.521
8.76541
-0.964395
12.0442
1.41916
-13.4685
-6.75739
-0.0389284
1.129
-17.8361
1.76049
14.9466
-15.4165
2.50429
14.0412
-21.9107
19.5603
1.74553
0.604812
-2.29534
0.170589
-19.7859
-3.29723
5.02143
-19.3913
0.677574
-10.7762
12.3161
-0.40791
1.447
-7.79648
1.68427
-15.5607
-14.3253
13.5648
14.1624
-14.7735
1.58266
-1.61599
-17.6048
-10.9452
1.08031
7.19052
1.52516
-9.79598
2.40922
0.171982
-13.4616
10.8804
16.683
9.35102
-18.9157
-7.11826
-9.43493
14.6508
11.4671
-6.82141
8.89204
-2.68403
0.613408
-9.07535
2.54198
-0.288044
15.1262
2.69009
-15.407
-6.50409
12.5549
0.714823
-4.52882
-9.89031
10.3014
-2.87271
2.46164
2.39708
-12.1154
-3.22707
8.36812
4.20997
1.53373
-18.0524
-7.18638
8.15462
-9.71539
1.08574
-3.78369
12.4133
-7.92252
-24.4333
22.6405
2.32964
21.3486
-13.4565
-10.2218
-12.2869
2.34781
4.0023
5.93678
-12.8963
-15.5213
16.1307
-21.9181
1.09924
-6.9447
10.4115
15.9825
-19.4493
-3.48107
-2.37788
-7.21596
-8.94382
18.4894
-8.65752
-10.5228
11.9644
-7.33886
1.02915
0.808881
0.658825
-11.9607
2.24675
-8.53555
-10.764
-7.41547
6.21094
-7.59091
8.79544
-10.8334
6.41643
-2.99847
0.179472
-10.8864
12.3024
-1.59546
-9.61522
-1.03873
-6.15149
-3.61576
15.9782
-6.20148
6.46641
0.264
-16.0371
9.57166
-21.9737
8.59058
13.6471
-0.87795
6.89356
-15.6308
7.37979
-19.1442
3.8264
-12.97
-6.68684
-11.4604
-0.300083
5.01157
-10.446
15.4208
17.2995
-16.6066
6.55344
46.7171
-28.2296
-1.83824
-16.6492
1.19388
21.4814
24.0418
-33.1572
-2.58515
22.9737
12.7687
-19.4335
-41.9534
-25.0429
12.6198
13.6169
-16.8717
-10.0094
-26.4942
13.6561
10.253
-12.1046
8.62994
-23.0195
0.388292
-31.9264
8.41656
36.0385
10.0926
-14.3746
16.9018
-31.921
28.5816
16.9955
-5.69653
-17.5946
15.7997
9.77366
-25.1851
25.2069
-6.69772
13.8662
-14.9382
-2.42301
1.91461
18.4978
-14.4206
1.91924
14.1555
-6.95838
3.3296
-14.7655
18.3943
15.8338
-18.1778
-1.13231
4.67613
-7.06159
18.2193
-11.2549
-0.417256
-10.9126
22.5847
-1.74253
-16.4707
-2.90855
22.3337
-5.64058
0.67698
-13.2142
-9.94567
19.2545
-9.72613
3.3344
-15.0226
-19.3663
17.0601
2.40779
4.19071
15.8405
-22.439
7.61204
24.4533
-29.6576
13.2022
-9.19566
10.3314
17.0841
3.2545
-1.08406
21.7876
7.58547
6.5971
-26.0836
10.892
-16.4948
-6.19709
9.05778
8.2913
1.44574
18.5344
-9.08805
10.1938
9.76316
-13.3599
-6.54898
18.1886
8.61881
3.71846
11.4008
7.11487
-9.89684
-0.840529
9.50165
1.94464
2.22742
-15.252
11.08
15.3509
-6.64958
6.92334
-15.6247
-4.52773
-0.969969
20.8486
-12.8233
3.49577
-2.10001
11.4275
4.11639
-14.995
-4.41442
14.9612
-15.0745
-9.96689
-3.82555
12.8225
-16.6364
0.0199306
21.4283
-0.916316
-10.0275
-10.4844
2.17171
2.18166
17.0749
17.7468
-9.25377
-9.40934
4.49435
15.4241
12.9745
4.0061
-12.8642
-0.166164
-0.466397
-12.7337
17.2062
-4.20296
-12.2689
16.0055
19.4477
-11.7644
-17.7108
17.2149
13.9398
-13.271
-13.74
14.0533
9.9878
-19.6775
-4.36361
-7.19073
12.0658
9.17821
6.32078
-3.52371
-15.545
4.0382
12.192
-0.685202
-17.3021
-11.858
13.6151
2.23783
-14.4614
18.5443
-4.42084
-11.6254
18.2841
3.66282
12.4412
14.1769
-13.0448
-5.55288
19.7048
-9.85299
4.32504
4.38599
20.8071
-5.4883
22.7527
-14.7039
-9.76672
-2.1656
-4.09364
16.026
-15.0116
14.4462
-9.20132
9.49583
-6.73956
-2.75627
3.25268
-0.746772
13.4241
-15.9301
0.0499798
12.6985
8.90232
-4.47605
-6.59188
1.49494
6.39406
-2.34397
-5.54504
8.71787
-7.22293
1.97831
2.23317
-12.5464
9.5665
-6.57207
8.85522
-8.17467
-17.1069
18.7095
-6.19636
-17.9401
-14.9689
15.8021
-14.9798
-9.15666
-5.2642
-3.18057
-6.52416
-13.85
-6.82469
1.63429
11.0805
1.40595
-14.1207
-16.6896
14.6052
3.71874
0.521977
-0.635113
-16.5765
-1.40643
-0.119446
16.131
-1.32936
11.0034
5.72376
-21.7233
17.6788
-1.67924
13.1892
-12.1157
4.65026
15.7717
-2.75975
-16.5718
3.55978
16.4662
-0.694478
-16.9882
-1.88358
18.7523
-0.711598
12.5715
5.39532
-1.45531
-25.6633
-9.00367
2.28327
18.589
-1.27477
0.364522
1.18626
16.6911
15.3501
-19.5652
-1.04643
15.7021
16.2554
-16.9527
-19.4816
-17.7297
25.9314
11.2799
-5.43792
-28.9281
14.8844
9.07306
-2.76058
-24.0422
5.80597
32.4684
-12.3429
-27.8259
-9.77181
16.5443
21.0534
19.2375
-32.2058
5.04643
7.92193
-5.49317
30.5366
-28.7437
-4.82456
5.74232
-24.172
1.0392
0.444373
-20.107
-4.50937
33.3749
-27.2203
-5.71021
23.2764
15.1449
-12.2811
30.0643
25.0477
-35.3679
-1.96097
5.11049
-21.5468
-3.67065
-23.308
1.19817
3.13293
-5.04749
-3.64744
5.562
-2.07506
1.5865
3.62148
-0.978233
0.190258
-4.25951
6.01942
0.00552104
-7.00317
6.15733
-5.53341
-6.90237
6.27846
-2.43451
4.13036
4.46147
1.50985
0.793235
-6.32113
-3.65086
6.44929
0.545759
-20.857
13.8619
-5.77056
5.66204
6.55782
10.5941
-0.713397
4.40801
-14.2887
14.1303
6.76803
-20.3526
-12.4329
12.7921
16.8195
-17.1786
-1.29283
-11.1401
-12.0809
9.59188
13.0831
-13.3737
9.70322
3.71372
13.648
-8.95803
2.07803
-4.43434
26.8184
18.9169
0.849505
-2.645
-14.056
15.8515
-1.803
-12.317
14.9695
2.37658
1.35111
-17.6715
13.9438
-14.7325
15.306
-14.7195
13.4256
6.21876
-11.9422
-8.33261
-6.09824
-4.16966
-16.0028
5.44003
7.76935
-4.10938
2.30503
-5.965
-18.1907
11.2406
-2.29057
-20.0096
-10.2679
-1.52654
-13.8399
-2.8441
-14.6853
1.3568
-15.5895
-11.7552
13.208
-13.6672
5.40673
-4.94746
-6.93753
7.26758
12.8779
8.5168
-2.49604
-19.688
1.57926
9.46747
4.18003
-8.24077
19.5197
-2.78466
-7.69902
9.27829
-11.6324
1.59523
12.0461
-2.00894
-5.44024
-13.8912
-17.3196
9.38328
10.0175
-14.208
-14.385
18.5755
-0.305748
10.3232
-0.573387
10.5857
1.53734
-11.5497
2.12324
-16.9046
9.22534
9.1299
-7.7695
8.9196
-0.773919
11.4434
-9.13215
15.1238
-13.7745
0.322464
13.0809
-13.8027
0.39935
4.166
-6.76671
17.7245
-0.713089
-12.7128
12.5734
0.852516
8.20651
-3.58133
-0.0016107
16.5395
-12.3526
-0.0208224
-0.237182
17.3597
-0.583016
0.612835
7.91614
12.9491
-4.49055
-18.5339
17.3718
-14.3776
15.5398
-11.4503
-2.95927
-4.12441
4.93824
-1.74767
14.1812
-26.1498
1.84442
9.92779
-22.2425
-15.3576
-11.3924
17.837
-1.50644
18.0498
-14.3752
-6.63389
11.7133
4.58883
-19.4066
9.85869
30.7934
-8.2647
-32.4148
9.88601
26.8456
-15.4588
18.709
4.40804
-7.02709
-16.0899
12.5021
5.10746
1.09945
1.90587
-32.4131
-13.3448
13.6692
12.1777
-6.9298
-2.00692
15.5711
-20.6923
6.30337
12.309
11.004
-11.6852
-11.6279
-5.90556
14.4217
3.79286
-21.3621
4.04749
14.3972
2.9174
-9.96682
-0.391247
18.5207
-12.5395
2.02487
-8.00605
23.6548
-7.15269
2.01854
11.4138
0.286211
-23.3852
8.34747
-2.83923
13.5239
4.9453
11.282
-22.3755
11.3797
6.76497
-8.02246
-17.5808
-16.6213
20.9792
13.2229
1.57242
-10.8058
-8.28392
0.0437471
35.189
-22.249
-12.9837
32.5237
-11.9694
-20.5105
5.2094
15.7574
14.2222
18.1504
19.5827
-21.5177
-6.39861
5.66731
11.2068
13.029
-8.47853
-11.0244
2.26906
12.7454
-3.99006
-11.5278
-1.87576
2.3791
16.6875
-4.69617
-12.8945
0.903182
11.3886
-6.22892
-15.757
17.2613
6.09569
-7.60008
6.77285
-20.6473
-1.8825
-1.96831