/*--------------------------------*- C++ -*----------------------------------*\
  =========                 |
  \\      /  F ield         | OpenFOAM: The Open Source CFD Toolbox
   \\    /   O peration     | Website:  https://openfoam.org
    \\  /    A nd           | Version:  10
     \\/     M anipulation  |
\*---------------------------------------------------------------------------*/
FoamFile
{
    format      ascii;
    class       volVectorField;
    location    "6";
    object      U;
}
// * * * * * * * * * * * * * * * * * * * * * * * * * * * * * * * * * * * * * //

dimensions      [0 1 -1 0 0 0 0];

internalField   nonuniform List<vector> 
75457
(
(5.00139 -0.421926 -0.790064)
(5.12732 -1.34959 -1.20355)
(7.40048 -0.0810788 -0.588853)
(9.72084 -0.423294 -1.05052)
(4.37885 0.883505 -0.0169498)
(4.61655 1.06817 -0.115089)
(5.45307 -0.697762 -0.695085)
(5.18268 0.41491 -1.09859)
(10.8903 -0.721358 -1.1245)
(10.7335 -0.491966 -0.920541)
(10.9905 -0.313895 -0.95518)
(5.09173 0.187363 0.241958)
(5.24211 0.011179 -0.156813)
(9.89593 -0.308686 -0.37081)
(11.7855 -0.53111 -0.320791)
(11.8791 -0.505594 -0.276809)
(12.1861 -0.495325 -0.422629)
(11.9796 -0.532763 -0.511148)
(11.9698 -0.527637 -0.302489)
(12.1826 -0.448502 -0.360375)
(12.0083 -0.501349 -0.465139)
(12.1334 -0.517344 -0.320244)
(11.8752 -0.540347 -0.303341)
(11.8837 -0.55154 -0.340238)
(12.1178 -0.539586 -0.301287)
(11.6999 -0.590425 -0.509366)
(11.6318 -0.629291 -0.541318)
(10.8501 -0.955726 0.721185)
(10.6151 -0.856447 0.822985)
(10.8112 -0.930499 0.713791)
(10.9042 -0.855138 0.663914)
(10.534 -0.835725 0.785146)
(10.5279 -0.80326 0.788111)
(11.1135 -0.744886 0.615045)
(11.0865 -0.735889 0.601982)
(11.223 -0.632901 0.77208)
(11.1713 -0.757268 0.647272)
(10.4846 -0.816689 0.834929)
(10.5852 -0.790994 0.817051)
(11.0955 -0.673242 0.616178)
(11.1263 -0.666669 0.622888)
(11.0926 -0.677636 0.643695)
(11.1834 -0.677543 0.77672)
(12.6599 0.632811 0.57522)
(12.4541 0.669266 0.507064)
(12.801 0.605343 0.55267)
(12.8106 0.572568 0.584678)
(12.63 0.636925 0.562771)
(11.9123 0.157386 0.120295)
(12.1939 0.239821 0.217109)
(12.2213 0.248558 0.20065)
(11.9999 0.174034 0.170819)
(11.6989 0.182942 0.0424853)
(12.1122 0.229027 0.191098)
(12.2451 0.232485 0.253336)
(12.2583 0.238069 0.224575)
(11.832 0.239882 0.125453)
(11.8607 0.24203 0.109886)
(11.8864 0.159985 0.0741932)
(11.6698 0.177911 0.0308738)
(11.7677 0.212413 0.0884086)
(11.9938 0.176047 0.128616)
(9.96311 0.0565091 -0.319286)
(9.96702 0.0669827 -0.344967)
(10.1532 0.0872997 -0.271424)
(9.95026 0.0615161 -0.311242)
(9.96891 0.055787 -0.291237)
(9.91928 0.0346646 -0.286923)
(9.94001 0.0414804 -0.223461)
(9.833 0.0273804 -0.248336)
(9.84601 0.00846745 -0.245019)
(9.79241 0.00123752 -0.257843)
(9.97391 0.0481228 -0.232248)
(10.1426 0.0891684 -0.270974)
(9.94943 0.0483741 -0.210247)
(10.1251 0.0792841 -0.238387)
(10.1124 0.0712641 -0.225899)
(0.105121 0.697954 0.315374)
(-1.15112 1.12605 -0.638451)
(-0.803763 1.02373 -0.646022)
(1.02571 0.874707 0.587562)
(-1.2713 1.24395 -0.231568)
(0.0913149 0.33775 -0.145589)
(-0.333506 0.473235 -0.505414)
(0.0125193 1.3138 -0.833789)
(-0.657687 1.3045 -1.01315)
(-0.0988783 0.929694 -0.823749)
(0.273482 0.888611 -0.903263)
(1.22674 0.64416 -0.302973)
(1.38292 0.849887 0.0686122)
(0.327225 0.780077 -0.351209)
(-0.0667527 0.714379 -0.559925)
(0.15437 1.05267 0.291477)
(-0.356347 0.97114 -0.193932)
(12.4101 -0.269958 -0.0226175)
(12.7951 -0.274624 -0.0292264)
(12.794 -0.279032 -0.0288057)
(12.8163 -0.277708 -0.022405)
(12.1929 -0.268311 -0.0184994)
(12.4478 -0.26668 -0.0248978)
(12.4495 -0.276484 0.000840634)
(12.3098 -0.257805 -0.0192937)
(10.017 -0.00995856 -0.0201801)
(10.0272 -0.0092606 -0.0171445)
(10.0207 -0.0149098 -0.0224526)
(10.0209 -0.0193368 -0.0157366)
(10.0119 -0.0174066 -0.00685596)
(10.0233 -0.0172904 -0.0060801)
(9.85487 0.000640817 -0.0206536)
(9.93349 -0.0144019 -0.0151744)
(9.94496 -0.0181667 -0.0110069)
(9.90171 -0.0186925 -0.00166834)
(9.87083 -0.0259444 -0.0231553)
(10.7341 0.114725 0.0662538)
(10.7711 0.138001 0.18466)
(10.3725 0.0969885 0.111123)
(10.361 0.032564 0.0377556)
(10.749 0.0867048 0.202029)
(10.6243 0.150949 0.114309)
(10.525 0.20006 -0.0208971)
(10.8374 0.106507 0.264473)
(10.8299 0.131036 0.273041)
(10.7282 0.128968 0.266771)
(10.5328 0.152967 0.125374)
(10.4357 0.125984 0.0883821)
(10.4805 0.122873 0.139568)
(10.5322 0.165123 0.0549058)
(10.4762 0.0930913 0.148448)
(10.5145 0.0581059 0.0812815)
(10.6177 0.116937 0.225286)
(10.7106 0.115509 0.242554)
(11.2789 0.00680515 0.348211)
(11.3509 0.0785243 0.302187)
(11.3514 0.054952 0.330814)
(11.2816 0.0337654 0.30088)
(11.2754 0.0193603 0.290866)
(11.2704 0.0790419 0.308316)
(11.201 0.037623 0.28996)
(11.2078 0.0278147 0.330616)
(11.1549 -0.00733972 0.305653)
(11.8877 0.0339622 0.179132)
(11.8933 0.020449 0.198995)
(11.7854 0.0140641 0.231056)
(11.8966 0.02915 0.150664)
(11.9289 0.0182607 0.169714)
(11.6263 0.0238353 0.114863)
(11.7996 0.00454915 0.239646)
(11.8315 -0.00561543 0.204988)
(12.7269 0.0239234 0.00719538)
(12.8203 0.0388181 0.0371167)
(12.5915 0.0052086 -0.0530264)
(12.6148 0.0730633 0.0199953)
(13.0243 0.028688 0.131393)
(12.9742 0.0696781 0.174478)
(12.7933 0.0360409 0.0786739)
(12.6297 0.0665633 0.0203293)
(12.6009 0.0543589 0.0660049)
(12.5376 0.0529297 -0.00106395)
(12.95 0.0626478 0.161552)
(12.6206 0.0723121 0.0290285)
(12.6356 0.0185473 -0.00674361)
(12.9361 0.0608487 0.201996)
(12.5555 0.0618778 0.0627435)
(11.504 1.08363 0.883784)
(11.2616 1.24364 0.87189)
(11.1743 1.30664 0.833381)
(11.3626 1.21569 0.783689)
(11.2299 1.11046 0.743625)
(11.6988 0.947287 0.851303)
(11.5391 0.75839 0.545687)
(11.4165 0.882734 0.672917)
(11.5434 1.27447 1.00906)
(11.4279 0.95958 0.646697)
(11.5315 1.07478 0.68448)
(11.7923 1.14647 0.888461)
(11.6213 0.9355 0.591619)
(12.849 -0.0797271 -0.0715038)
(12.9699 -0.0424901 -0.0886824)
(12.8672 -0.0182387 -0.0410848)
(12.6859 -0.0450432 -0.0124208)
(12.7161 -0.0257036 -0.00153852)
(12.5782 -0.0315012 -0.0385237)
(12.8214 -0.0811311 -0.0367599)
(12.762 -0.0909807 -0.0143124)
(12.6209 -0.0980129 -0.00184972)
(12.962 -0.0469375 -0.0996392)
(12.7043 -0.0468852 -0.0303788)
(12.8498 -0.0722807 -0.0560208)
(12.6027 -0.0427273 -0.0144192)
(12.5579 -0.0359658 0.00203167)
(10.2853 -0.0820663 -0.706547)
(9.76555 -0.240709 -0.870961)
(9.62269 -0.0609825 -0.975085)
(8.98373 -0.123481 -0.775038)
(8.47646 -0.193494 -0.868134)
(8.82537 -0.100234 -0.837061)
(11.8419 0.360583 -0.604843)
(11.6859 0.22547 -0.45889)
(11.7656 0.199738 -0.427671)
(11.849 0.2309 -0.464253)
(11.9656 0.253762 -0.462152)
(11.6032 0.17862 -0.182305)
(11.449 0.293038 -0.13787)
(11.4966 0.285505 -0.108965)
(11.62 0.310937 -0.224615)
(11.8636 0.306497 -0.227268)
(11.7106 0.253399 -0.0525714)
(11.7885 -0.00230336 -0.0996549)
(11.8347 -0.0192343 -0.0410226)
(11.8781 -0.0269178 -0.0363499)
(12.1 -0.0519467 -0.0628074)
(12.0316 -0.000906029 -0.118663)
(11.6935 -0.0160438 -0.0587819)
(11.7022 0.0455916 -0.0857045)
(12.0174 -0.000299994 -0.137651)
(11.8993 -0.00435566 -0.0878223)
(11.7707 -0.0363069 -0.024056)
(12.0153 0.00278878 -0.133564)
(11.6668 0.01557 -0.0946231)
(11.6263 0.000579456 -0.0165356)
(11.6433 -0.0029917 -0.0444248)
(11.7909 0.360668 -0.0290702)
(11.8581 0.376014 0.00856996)
(11.692 0.35537 -0.0265612)
(12.0172 0.326797 -0.00647796)
(11.8846 0.320896 0.0352115)
(11.7884 0.386936 -0.0318293)
(11.8776 0.38526 -0.00716195)
(11.8412 0.424653 -0.052729)
(11.7381 0.411544 -0.0182196)
(12.1294 0.385318 -0.0805738)
(12.1637 0.357444 -0.068346)
(11.8978 0.384326 -0.0186859)
(11.8945 0.400403 -0.0403102)
(11.9492 0.37997 -0.00412745)
(12.2078 -0.00113198 -0.302977)
(12.0223 -0.00537525 -0.338324)
(12.3614 -0.0666919 -0.326055)
(12.2732 -0.0477385 -0.261805)
(12.2952 -0.0605915 -0.253151)
(12.3967 -0.069327 -0.33435)
(12.0894 -0.00982242 -0.256296)
(11.988 0.0236476 -0.30029)
(12.0281 -0.0135571 -0.336799)
(11.9113 -0.0108967 -0.326242)
(12.1077 -0.0344335 -0.3605)
(12.032 -0.0188865 -0.24932)
(12.0419 -0.0120251 -0.227743)
(11.9851 -0.00450567 -0.349898)
(11.9102 -0.00610143 -0.321278)
(11.9736 -0.00515397 -0.241539)
(11.9902 0.0184233 -0.305505)
(10.5092 -0.0856318 0.0293325)
(10.2198 0.0274888 -0.0642971)
(10.3368 0.0216057 -0.0714038)
(10.3001 0.0415586 -0.0493076)
(10.508 -0.129641 0.0142906)
(10.6633 -0.166121 -0.00887503)
(10.5392 -0.249766 0.182598)
(11.816 -0.212495 0.156674)
(11.885 -0.294816 0.150606)
(11.8258 -0.259448 0.149516)
(10.5991 -0.100416 0.0404536)
(10.4519 -0.187336 0.0793213)
(12.1593 0.22092 -0.174286)
(11.4354 0.152636 0.00978324)
(11.8304 0.0942173 -0.269299)
(11.567 -0.000857543 -0.153149)
(11.4901 0.140759 0.0189781)
(11.6659 -0.0117711 -0.158449)
(11.623 -0.00090802 -0.16505)
(11.5877 0.13928 -0.0182407)
(11.9715 0.19416 -0.372563)
(11.9283 0.186282 -0.346997)
(12.0763 0.242321 -0.188742)
(11.9587 0.185752 -0.336902)
(12.0582 0.227261 -0.170832)
(12.2019 0.0369425 0.122866)
(12.1356 0.00708509 0.134497)
(12.3262 0.0557248 0.148102)
(12.2713 -0.000639196 0.16454)
(12.2381 -0.0151408 0.169782)
(12.1633 0.0295726 0.106657)
(12.1669 -0.00100109 0.122564)
(12.2502 0.0190952 0.138079)
(12.2225 0.000604381 0.148122)
(12.2378 0.0504502 0.116056)
(12.5929 0.107696 0.146427)
(12.5185 0.0922419 0.14295)
(12.2633 0.0369983 0.113753)
(12.4589 0.0866435 0.119706)
(12.4441 0.0820243 0.11321)
(9.68932 0.0677886 0.0252915)
(9.62441 0.0494323 0.0354051)
(9.54687 -0.0117548 -0.0048999)
(9.49726 -0.000884529 -0.00722626)
(9.5755 0.0518173 -0.0123436)
(9.69837 0.045584 0.00582458)
(9.72216 0.0620444 0.0136866)
(9.53237 0.0374056 0.000710293)
(9.61653 0.0201398 -0.000293979)
(6.8804 -0.138548 -2.21192)
(6.74207 -0.0815451 -2.18022)
(6.74271 -0.367732 -2.2487)
(6.7796 -0.394999 -2.25292)
(6.46459 -0.198722 -2.30824)
(6.34981 -0.0449078 -2.27409)
(6.33958 -0.337827 -2.50188)
(6.34831 -0.466612 -2.39844)
(6.47522 -0.0743564 -2.33773)
(6.41986 -0.397814 -2.5047)
(6.41858 -0.472443 -2.41143)
(6.77108 -0.323749 -2.30677)
(6.72902 -0.452732 -2.33151)
(4.3018 -0.0463772 -0.142616)
(1.36502 0.251777 -0.0702298)
(2.13227 0.2199 -0.23969)
(4.87082 -0.107229 -0.183249)
(5.23896 -0.193604 -0.0257854)
(4.74623 -0.235821 0.0355378)
(4.82919 -0.134341 -0.0941272)
(1.13001 0.179854 -0.298828)
(0.681156 0.598707 -0.223444)
(1.96168 0.128279 0.175878)
(2.12662 -0.0196732 -0.0391093)
(12.3218 0.132537 0.1489)
(12.4298 0.166162 0.15955)
(12.4403 0.178517 0.148239)
(12.1652 0.213442 0.068849)
(12.0939 0.203734 0.0534673)
(12.1404 0.142585 0.0858938)
(12.1606 0.18161 0.0753701)
(12.0964 0.193393 0.0558829)
(12.021 0.183988 0.0567511)
(12.3047 0.119593 0.138657)
(12.3505 0.137681 0.123661)
(11.8885 0.07942 0.0429282)
(11.8681 0.076952 0.071839)
(11.9091 0.128287 0.0149664)
(12.063 0.141128 0.081549)
(11.8374 0.0734451 0.054733)
(11.8293 0.0722133 0.0300379)
(-1.47478 -0.227043 -0.575697)
(-1.11267 -0.916256 -0.179667)
(-1.44501 -0.391986 -0.19447)
(-1.45446 -1.16606 -0.188593)
(-2.85974 -0.0861526 -0.150474)
(-2.33289 -0.705205 -0.558767)
(-2.85367 0.307845 -0.133951)
(-0.923005 -1.37938 -0.52721)
(-1.88367 -0.718218 -0.572911)
(-2.17654 -0.587442 0.00776983)
(-2.31448 -0.770828 -0.195496)
(10.8226 0.102125 0.0670742)
(10.7955 0.111961 0.024127)
(10.6245 0.0841068 0.0293803)
(10.4221 0.0301011 0.102254)
(10.386 0.0824696 -0.0275048)
(10.4917 0.0336731 0.120108)
(10.4556 0.031487 0.10135)
(10.3023 0.0778278 0.083843)
(10.4944 0.0735542 0.0572263)
(10.1707 0.0176888 0.0747857)
(10.4473 0.0714081 0.0421223)
(10.9396 0.178579 0.119477)
(10.9143 0.177566 0.102019)
(10.9662 0.183255 0.118876)
(10.9303 0.170237 0.0944563)
(10.7341 0.166394 0.0607934)
(10.8004 0.178983 0.0846363)
(10.5995 0.190493 0.032537)
(10.6703 0.200904 0.0468623)
(10.8247 0.194293 0.0703331)
(10.6972 0.181026 0.0508391)
(10.501 0.194037 0.000863216)
(10.569 0.199116 0.0041957)
(10.6427 0.153389 0.0447899)
(10.7045 0.166639 0.0541376)
(10.6136 0.169714 0.048107)
(6.59931 -0.262723 -0.00849798)
(6.57528 -0.134082 -0.066199)
(6.54552 -0.103358 -0.0970939)
(7.1413 -0.0538337 -0.111603)
(6.12608 -0.0561628 -0.116588)
(12.0071 -0.0519804 0.61194)
(12.1318 -0.0871363 0.604688)
(12.2277 -0.113063 0.676778)
(12.167 -0.0992639 0.672184)
(12.5213 -0.18546 0.659361)
(12.4826 -0.199468 0.685568)
(12.3086 -0.120692 0.636589)
(7.94941 2.52518 -0.121286)
(7.51577 2.6919 -0.630565)
(8.88339 2.29148 -0.373474)
(8.73122 2.5665 -0.545808)
(7.98749 2.97734 -0.192621)
(7.47675 3.01627 -0.73053)
(8.09255 2.26078 -0.092107)
(7.58901 2.36617 -0.716926)
(8.24221 3.02453 -1.37929)
(7.37121 3.08694 -1.44919)
(8.303 2.14667 -0.189461)
(7.9789 2.1521 -0.79055)
(8.32884 2.69829 -1.28677)
(7.78891 2.65975 -1.12228)
(8.9602 2.20281 -0.378822)
(8.49295 2.44988 -1.21186)
(7.92653 2.41251 -1.05659)
(8.98769 2.24279 -0.58297)
(9.64513 2.07502 -0.410979)
(9.80167 1.91358 -0.482624)
(9.63221 1.95634 -0.705487)
(9.5626 2.0464 -0.801029)
(9.56952 1.77304 -0.693981)
(9.49566 2.07618 -0.789964)
(9.58953 1.9161 -0.278112)
(9.51937 2.08865 -0.335055)
(9.45745 2.19825 -0.670613)
(9.04244 2.02439 -0.616346)
(9.34965 1.7082 -0.527495)
(9.31415 1.88348 -0.326745)
(9.0297 2.22344 -0.290122)
(10.2554 3.17187 -1.05655)
(10.6009 2.74417 -0.984098)
(11.0097 2.07798 -0.435826)
(10.9211 1.9772 -0.436647)
(10.3976 2.45942 -0.950857)
(10.6218 2.44967 -0.869265)
(10.7509 2.18371 -0.589472)
(10.7228 2.11244 -0.589884)
(10.507 3.16575 -0.906369)
(10.8348 2.89979 -0.758986)
(10.0096 2.8138 -0.987885)
(10.0852 2.90688 -0.974882)
(10.772 2.61107 -0.377129)
(10.6854 2.41058 -0.349078)
(10.9989 2.33995 -0.433354)
(10.4458 2.15389 -0.663613)
(10.1323 2.61598 -0.631407)
(10.1994 2.7432 -0.666026)
(10.5005 2.70334 -0.406982)
(10.4913 2.56682 -0.429945)
(10.4324 2.83148 -0.588267)
(10.3498 2.49995 -0.498183)
(13.0846 -0.0372921 0.255033)
(12.8167 -0.0120213 0.220234)
(12.8902 -0.0626861 0.228589)
(12.8192 -0.00539463 0.230393)
(12.9006 -0.0609621 0.230208)
(13.1285 -0.0161737 0.269724)
(12.9543 0.0139364 0.260388)
(13.1476 -0.0502347 0.21511)
(12.9109 -0.0183889 0.229364)
(13.0911 -0.0196902 0.265258)
(13.0555 -0.0909285 0.218101)
(12.9561 0.000995873 0.25183)
(13.1329 -0.0681029 0.210848)
(12.9801 -0.0123067 0.247216)
(13.1483 -0.0819948 0.207762)
(13.1303 -0.0447757 0.233583)
(5.18183 -0.582236 -0.177066)
(-0.374884 -1.27493 -0.666629)
(2.45955 0.937886 0.104551)
(1.91833 1.6856 0.0031441)
(10.7908 0.681461 -1.53759)
(10.9748 0.840358 -1.91474)
(4.91693 1.2737 -0.326364)
(5.62846 0.943002 -0.23605)
(11.3433 0.322297 -1.25493)
(11.5152 0.366719 -1.4654)
(-0.090736 -0.226846 0.569032)
(7.13895 -0.228553 -0.68767)
(4.98983 0.0424305 0.134651)
(5.65387 1.59849 -0.110065)
(10.8163 0.718113 -1.29975)
(11.4798 0.626236 -1.11791)
(12.5118 0.107788 0.303226)
(12.5631 0.152157 0.29289)
(12.4512 0.104635 0.241774)
(12.409 0.10612 0.204151)
(12.3744 0.117124 0.214166)
(12.3887 0.10832 0.262347)
(12.506 0.115581 0.256031)
(12.5698 0.125807 0.29317)
(12.4968 0.155365 0.301546)
(12.4559 0.0964384 0.305488)
(12.3195 0.123967 0.204448)
(12.2979 0.091702 0.155162)
(12.354 0.110408 0.22344)
(12.3829 0.107929 0.264487)
(12.3092 0.0915689 0.147846)
(12.3757 0.0976479 0.160861)
(12.4702 0.0981594 0.194094)
(12.4182 0.110371 0.207084)
(9.74774 1.73894 -0.211637)
(9.42818 1.6714 0.533183)
(9.33717 2.04188 0.69273)
(9.71908 1.90694 0.0424376)
(9.61353 2.05484 -0.086492)
(9.23034 2.51069 0.150643)
(8.72015 2.70408 0.110045)
(9.37479 1.70811 -0.210114)
(9.54042 2.06952 0.456455)
(9.01534 1.91778 0.499446)
(8.86476 2.1905 0.53326)
(8.80661 2.66749 0.236367)
(9.3052 2.40149 0.4009)
(9.72944 1.77582 0.240617)
(9.67405 1.6038 0.238175)
(9.63759 1.63766 -0.151616)
(10.5821 0.652622 -0.303913)
(10.6526 0.654759 -0.255237)
(10.6101 0.599814 -0.289819)
(10.6149 0.766309 -0.329952)
(10.72 0.83077 -0.239433)
(10.5537 0.54715 -0.307234)
(10.4889 0.631037 -0.375648)
(10.5263 0.718652 -0.404346)
(10.5874 0.735612 -0.397544)
(10.5205 0.725742 -0.439423)
(10.5765 0.734459 -0.380102)
(10.6487 0.739415 -0.423121)
(10.5959 0.729124 -0.464468)
(10.7 0.756486 -0.368382)
(10.6418 0.726751 -0.359194)
(10.4928 0.595719 -0.341519)
(10.4593 0.625384 -0.398175)
(11.651 -0.0415454 0.710222)
(11.6596 -0.0157314 0.682424)
(11.7784 0.134013 0.584181)
(11.7821 0.166106 0.598335)
(11.7748 0.175713 0.601029)
(11.7707 0.131552 0.578597)
(11.6664 -0.00499597 0.771601)
(11.645 0.00329216 0.797077)
(11.7785 0.295536 0.71931)
(11.7679 0.383016 0.864646)
(11.6345 -0.000681236 0.637868)
(11.7794 0.137128 0.584297)
(11.7895 0.298692 0.722379)
(11.7878 0.332216 0.802478)
(11.639 0.0199554 0.60498)
(11.8231 0.297427 0.785176)
(11.7087 0.0161448 0.733692)
(10.1318 -1.82144 0.860941)
(10.5111 -1.79734 0.830219)
(10.6395 -1.7747 0.930823)
(9.97525 -1.90202 0.914002)
(10.6725 -1.84573 0.717356)
(9.88412 -1.92295 0.870606)
(10.2873 -1.9097 0.503257)
(9.92552 -1.98155 0.517999)
(10.7475 -1.83244 0.749165)
(10.8114 -1.85962 0.837694)
(10.7006 -1.78585 0.936389)
(10.0416 -2.0082 0.865421)
(9.78485 -2.12667 0.397959)
(10.2318 -2.05054 0.39752)
(10.0858 -2.20171 0.340976)
(10.4941 -1.905 0.464777)
(9.65427 -2.2456 0.410846)
(9.7245 -2.27615 0.367362)
(11.8662 -0.842382 0.464654)
(12.0403 -0.724586 0.474985)
(11.9899 -0.672807 0.446428)
(11.9423 -0.636176 0.267815)
(11.7834 -0.788664 0.287206)
(11.9729 -0.540168 0.38904)
(11.8251 -0.841202 0.471492)
(11.9215 -0.711356 0.460595)
(11.8775 -0.682658 0.451985)
(11.9284 -0.516813 0.394488)
(11.8557 -0.676183 0.273851)
(11.7994 -0.70539 0.420861)
(11.8443 -0.596264 0.334014)
(11.7481 -0.872693 0.40817)
(11.8341 -1.22228 0.696199)
(11.8457 -1.14328 0.719073)
(11.8197 -1.06507 1.05453)
(12.1022 -0.850821 1.01619)
(11.8696 -1.05029 1.07059)
(11.8353 -1.1102 1.06792)
(11.7091 -1.29313 0.852877)
(11.9028 -1.13838 0.674606)
(11.9571 -1.03806 0.72726)
(11.8327 -1.27589 1.00332)
(11.8496 -1.23165 0.971993)
(11.7803 -1.28054 0.859305)
(11.9159 -1.13698 0.71667)
(12.1231 -0.87418 0.80332)
(12.1353 -0.886296 0.776499)
(11.838 -1.24075 0.79687)
(12.1325 -0.920488 0.849328)
(11.9422 -1.12833 0.899252)
(10.672 3.28155 -0.92158)
(11.042 3.20618 -0.820362)
(11.0326 2.96526 -0.76425)
(10.451 3.24007 -0.699396)
(10.7636 3.43511 -0.709862)
(11.3792 2.91728 -0.47543)
(11.2263 2.55363 -0.431884)
(11.0564 3.3773 -0.143569)
(11.2694 3.19673 -0.10851)
(10.6019 3.29965 -0.303537)
(11.1251 2.50109 -0.379954)
(11.1222 3.52876 -0.33269)
(11.8495 -0.264091 1.05342)
(12.3305 -0.211975 1.06016)
(11.6205 -0.45405 0.994698)
(12.2975 -0.193537 1.04577)
(11.7182 -0.216628 1.08105)
(12.0553 -0.393194 0.892651)
(11.6472 -0.359316 1.01454)
(11.6996 -0.411389 0.949331)
(11.9317 -0.423206 0.936336)
(12.5151 -0.17521 0.889346)
(12.6179 -0.176505 0.789556)
(12.4717 -0.203397 0.847882)
(12.3138 -0.318714 0.748844)
(12.448 -0.317835 0.72045)
(12.5965 -0.186251 0.782203)
(12.4245 -0.305581 0.714788)
(11.9789 -0.186758 1.0991)
(11.7964 -0.104044 1.03376)
(11.8851 -0.150763 1.06854)
(11.7652 -0.0947685 0.995286)
(11.4884 -0.116724 1.18003)
(11.4031 -0.308047 1.28332)
(11.0081 -0.338333 1.29956)
(11.43 -0.0372222 1.28883)
(11.4731 -0.0897877 1.15019)
(11.7231 -0.0709139 1.01116)
(11.8184 -0.131112 1.05072)
(11.8434 -0.293307 1.14405)
(11.0868 -0.386735 1.25511)
(11.7065 -0.233445 1.10155)
(11.6047 -0.360877 1.17022)
(11.6256 -0.354911 1.16966)
(12.3604 0.480119 0.558635)
(12.4246 0.495909 0.581282)
(12.4747 0.427315 0.527545)
(12.2896 0.549761 0.389058)
(12.0922 0.727154 0.520566)
(12.3148 0.299627 0.489502)
(12.2445 0.310515 0.479095)
(12.4967 0.591512 0.51698)
(12.3843 0.66828 0.585802)
(12.327 0.65693 0.412723)
(12.1767 0.7423 0.518253)
(12.301 0.607903 0.590632)
(12.2425 0.564579 0.563593)
(12.126 0.529406 0.584925)
(12.2128 0.449415 0.472869)
(12.3874 0.313885 0.492973)
(12.351 0.374252 0.451941)
(12.2749 0.370002 0.471098)
(12.3882 0.54478 0.455492)
(10.9713 -0.389319 -0.889631)
(10.935 -0.404755 -0.878654)
(11.198 -0.414728 -0.76937)
(10.6976 -0.477772 -0.932846)
(11.0276 -0.384299 -0.882395)
(10.7383 -0.508938 -0.883102)
(10.9818 -0.504374 -0.909385)
(11.3656 -0.358484 -0.821457)
(10.939 -0.528339 -0.808789)
(11.4967 -0.408848 -0.676009)
(10.7634 -0.531174 -0.879891)
(11.0716 -0.545036 -0.824219)
(11.11 -0.576593 -0.738534)
(11.1033 -0.587624 -0.759553)
(9.78598 -1.00221 -0.340482)
(9.79453 -0.994173 -0.35881)
(10.1642 -0.936008 -0.21262)
(9.88288 -0.985435 -0.206957)
(10.0059 -0.949641 -0.28424)
(10.0017 -0.961647 -0.249707)
(10.4193 -0.825933 -0.231955)
(10.3137 -0.851692 -0.527089)
(10.2239 -0.858789 -0.510274)
(10.7388 -0.723125 -0.360877)
(10.6355 -0.755954 -0.32343)
(9.90461 -1.00142 -0.504865)
(10.5547 -0.747289 -0.369993)
(10.4225 -0.81072 -0.528716)
(10.404 -0.799042 -0.523912)
(10.7409 -0.734701 -0.372879)
(10.6773 -0.740916 -0.340333)
(10.4761 -0.771227 -0.479767)
(11.6207 1.33082 -0.17969)
(11.2078 1.43518 -0.602753)
(10.8916 1.56482 -0.85858)
(12.2709 0.659027 -0.303677)
(12.1862 0.876069 -0.263343)
(11.6118 1.15711 -0.519422)
(11.8344 1.07985 -0.203169)
(12.3855 0.615362 -0.294975)
(12.2197 0.883419 -0.234486)
(11.2149 1.14256 -0.836393)
(11.7476 0.873556 -0.647746)
(4.90295 -1.01949 -0.805948)
(5.11423 -1.08088 -0.756442)
(4.8829 -1.00291 -0.880875)
(4.75754 -0.881767 -0.936798)
(3.57769 -0.31659 -1.28298)
(2.80277 -0.344378 -1.03812)
(3.04216 -0.0316896 -1.3486)
(2.57379 -0.230599 -1.23053)
(5.49296 -1.20254 -0.780679)
(5.90276 -1.31164 -0.697135)
(4.89328 -1.19628 -0.825516)
(4.32758 -0.999431 -0.879012)
(4.15943 -0.826413 -0.880507)
(3.62374 -0.836677 -0.874874)
(3.68023 -0.592064 -0.89874)
(3.69298 -0.752115 -0.896945)
(3.05179 -0.3318 -1.15215)
(5.75678 -1.3293 -0.761299)
(5.40739 -1.2737 -0.855495)
(5.83887 -1.464 -0.769981)
(5.10286 -1.0657 -0.984831)
(13.2958 -0.148508 0.277447)
(13.3023 -0.147492 0.242664)
(13.2913 -0.0827498 0.299745)
(13.3187 -0.109313 0.259396)
(13.2927 -0.0964862 0.307813)
(13.2855 -0.155553 0.270637)
(13.2867 -0.154794 0.283938)
(13.2781 -0.070669 0.279956)
(13.245 -0.063566 0.307701)
(13.1625 -0.0822803 0.333086)
(13.1754 -0.0988966 0.308833)
(13.1198 -0.0809368 0.340215)
(13.2776 -0.0812638 0.272591)
(13.1627 -0.0727576 0.328136)
(13.0852 -0.0645747 0.31669)
(13.1872 -0.0778124 0.289717)
(13.0899 -0.0527766 0.315964)
(11.8604 0.0704342 1.06293)
(11.7206 0.0562394 1.08993)
(11.5197 0.00168115 1.23266)
(10.9663 0.0354064 1.24778)
(11.8484 0.080534 1.10785)
(11.7379 0.0640796 1.1675)
(10.9728 0.403697 0.790774)
(10.9714 0.246305 0.993596)
(11.6244 0.0239057 1.21746)
(10.9551 0.107618 1.18736)
(11.1033 0.244107 1.17409)
(8.73619 -0.149252 0.242434)
(8.77191 -0.0659217 0.132708)
(8.71029 -0.021585 0.191442)
(7.20632 -0.00646876 0.0422369)
(7.77192 -0.128876 0.173534)
(6.20205 0.135193 0.0734013)
(5.55589 0.171286 0.0371987)
(6.25173 -0.0896564 0.172901)
(7.35943 0.0816848 0.219896)
(7.87103 0.000317901 0.15544)
(5.60095 0.161489 0.0271246)
(6.3038 0.155425 0.0851969)
(5.89337 0.135233 0.108826)
(11.8827 -0.371997 -0.410934)
(11.8136 -0.340876 -0.390951)
(11.9217 -0.395696 -0.3104)
(11.9728 -0.393087 -0.309913)
(11.8378 -0.457811 -0.43556)
(11.8102 -0.435389 -0.411645)
(11.7974 -0.415361 -0.489012)
(11.7511 -0.414227 -0.495419)
(11.8629 -0.33702 -0.286333)
(11.9639 -0.363941 -0.314483)
(11.7259 -0.344846 -0.404006)
(11.7588 -0.327363 -0.379817)
(11.9921 -0.370614 -0.279799)
(11.7481 -0.427614 -0.451979)
(11.9131 -0.355375 -0.252781)
(11.8769 -0.35984 -0.289463)
(11.712 -0.343028 -0.365723)
(11.7555 -0.331705 -0.331442)
(11.8429 -0.352175 -0.274032)
(11.8449 -0.353117 -0.258941)
(11.8191 -0.349354 -0.292998)
(11.7546 -0.380157 -0.369985)
(11.8395 -0.498837 -0.644188)
(12.316 -0.446748 -0.559171)
(11.617 -0.384734 -0.739728)
(12.335 -0.33504 -0.590702)
(12.3528 -0.466974 -0.549258)
(11.4342 -0.552848 -0.668499)
(11.5417 -0.337484 -0.762835)
(12.3153 -0.327688 -0.589507)
(11.9154 -0.341184 -0.708932)
(11.4034 -0.560925 -0.66671)
(11.8711 -0.507095 -0.563097)
(11.9253 -0.52049 -0.585737)
(11.2148 -0.425195 -0.82282)
(12.2607 -0.350052 -0.610547)
(11.8854 -0.333293 -0.718575)
(11.0841 -0.454789 -0.879588)
(11.5348 -0.377535 -0.847932)
(12.037 -0.446377 -0.647046)
(12.3125 -0.44225 -0.568916)
(12.2621 -0.418055 -0.598522)
(12.4145 0.333686 0.319828)
(12.3203 0.353975 0.342539)
(12.2914 0.362897 0.440159)
(12.3063 0.358622 0.515324)
(12.3634 0.313557 0.30104)
(12.31 0.334467 0.33382)
(12.2577 0.33348 0.510584)
(12.2212 0.344232 0.458536)
(12.4372 0.294051 0.418983)
(12.3655 0.261146 0.476781)
(12.4142 0.276089 0.438577)
(12.3412 0.290832 0.327365)
(12.2961 0.280479 0.324392)
(12.2755 0.322614 0.338122)
(12.4451 0.278565 0.451874)
(12.4021 0.261463 0.507845)
(12.3116 0.241233 0.421705)
(12.2302 0.302564 0.335892)
(12.1794 0.315363 0.459548)
(12.2055 0.317383 0.527965)
(12.1639 0.288506 0.436457)
(12.1588 0.30446 0.496557)
(10.977 0.048741 0.950321)
(11.0405 0.133535 1.00115)
(12.0237 0.0722388 0.899149)
(11.9853 0.0872316 0.889752)
(11.8414 0.0539769 0.972492)
(11.7545 0.101178 1.00916)
(11.8397 0.0721343 0.906645)
(11.798 0.0602559 0.978657)
(11.5982 0.0532995 0.92945)
(11.067 0.0219099 0.897979)
(11.0109 -0.0307 0.895392)
(11.1365 0.00354375 0.90198)
(11.8205 0.143761 0.924354)
(11.9017 0.114329 0.823897)
(11.9505 0.0846791 0.845883)
(11.2357 0.0317618 0.869362)
(11.5034 0.0901954 0.826402)
(12.448 0.483249 0.904596)
(12.4541 0.555696 0.880835)
(12.6848 0.275566 0.833421)
(12.645 0.390572 0.790194)
(12.6912 0.319283 0.803945)
(12.7948 0.282882 0.79776)
(12.8228 0.267054 0.763666)
(12.7209 0.489165 0.714889)
(12.6872 0.482063 0.727089)
(12.6414 0.577072 0.712455)
(12.7067 0.552819 0.710041)
(12.8099 0.335408 0.757086)
(12.7046 0.585752 0.717125)
(12.6404 0.58548 0.719126)
(10.9881 0.786798 -0.456405)
(10.9254 0.724623 -0.308633)
(10.8703 0.678376 -0.304844)
(10.9294 0.723726 -0.482995)
(10.8617 0.721044 -0.486655)
(10.9727 0.588482 -0.345494)
(10.9123 0.527714 -0.314624)
(11.0119 0.646055 -0.358083)
(10.9692 0.584002 -0.354787)
(10.8951 0.535643 -0.322417)
(13.0226 -0.240742 0.530559)
(13.0121 -0.269086 0.528811)
(12.9169 -0.203538 0.601741)
(12.9259 -0.200628 0.554747)
(13.0205 -0.323704 0.568613)
(13.0198 -0.33887 0.583913)
(12.9638 -0.219152 0.561183)
(12.9392 -0.174118 0.575715)
(12.9935 -0.321913 0.587016)
(12.903 -0.176947 0.610993)
(12.9244 -0.221119 0.647574)
(12.9213 -0.189903 0.652289)
(12.911 -0.154583 0.6166)
(12.9628 -0.2896 0.639701)
(12.9296 -0.153746 0.616728)
(12.9315 -0.184261 0.643181)
(12.9685 -0.287763 0.631647)
(8.41052 0.154605 0.0837574)
(8.33072 0.149698 0.143767)
(8.26913 0.195396 0.219231)
(7.77772 0.0526054 0.0530242)
(7.76798 0.0570008 -0.0359018)
(8.17351 0.173406 0.104155)
(8.41162 -0.169876 -0.317933)
(8.4319 -0.1287 -0.309621)
(8.25918 -0.102767 -0.259399)
(8.08625 -0.104025 -0.217757)
(8.32633 0.221589 0.242549)
(8.3921 0.190863 0.13292)
(8.39872 0.030288 0.0172438)
(8.42249 0.0932327 0.0227587)
(8.06028 -0.0384757 -0.203711)
(8.03445 -0.0185402 -0.188705)
(7.72222 0.0514755 -0.06345)
(8.29225 0.165626 0.0623451)
(8.40066 -0.00163338 -0.0262269)
(8.28772 0.0715048 -0.0446379)
(11.7697 0.00322128 0.475438)
(11.6196 -0.0605017 0.463963)
(11.6119 0.00439433 0.445394)
(11.7305 0.0292544 0.470689)
(11.6039 -0.103024 0.483975)
(11.3125 -0.0718442 0.48114)
(11.5399 -0.170121 0.471823)
(11.786 -0.0147769 0.434067)
(11.7775 0.00532565 0.460588)
(11.7197 -0.052477 0.465261)
(11.347 -0.190946 0.414068)
(11.286 -0.100978 0.478609)
(11.7455 0.0320814 0.462436)
(11.4982 -0.0706328 0.460884)
(11.5067 -0.10886 0.443648)
(11.2509 -0.157311 0.440542)
(3.33251 -0.384408 0.358764)
(3.30993 -0.534653 0.548396)
(2.30187 -0.505695 0.859889)
(2.22068 -0.408393 0.747835)
(6.48567 -0.780179 0.234396)
(4.78668 -0.68513 0.275047)
(8.02692 -0.395435 0.368106)
(5.7789 -0.0283401 0.427812)
(3.2579 0.225574 0.98827)
(4.76812 -0.30055 0.713244)
(7.90572 -0.384875 0.268218)
(5.95769 -0.398819 0.435019)
(4.85607 0.0859182 0.349881)
(12.5543 -0.184587 1.16355)
(12.5257 -0.0950219 1.23285)
(12.5972 -0.204752 1.12405)
(12.6652 -0.215377 1.00543)
(12.7689 -0.205633 0.941957)
(12.709 -0.192068 1.05787)
(12.511 -0.0688968 1.23959)
(12.5698 0.0505729 1.09651)
(12.659 -0.0884191 1.02971)
(12.6501 -0.183839 0.970184)
(12.8195 -0.123766 0.904607)
(12.5887 0.112563 1.05607)
(11.8098 0.348517 -0.160379)
(11.7651 0.261253 -0.181984)
(11.8136 0.225403 -0.196441)
(11.9031 0.350994 -0.136959)
(11.8428 0.298633 -0.134059)
(11.8801 0.274285 -0.153583)
(12.034 0.330506 -0.174683)
(12.1221 0.335903 -0.188917)
(12.0265 0.247005 -0.18314)
(11.9832 0.235801 -0.182042)
(12.0559 0.541893 -0.271342)
(12.1386 0.535111 -0.271306)
(11.9796 0.48753 -0.284385)
(12.0386 0.477613 -0.267891)
(11.8892 0.482236 -0.286319)
(11.9297 0.405466 -0.204311)
(11.9365 0.323063 -0.143665)
(11.9922 0.494709 -0.260838)
(12.0141 0.378786 -0.181217)
(11.8847 -0.473304 0.246461)
(11.858 -0.435515 0.322083)
(12.0422 -0.368865 0.169089)
(12.0236 -0.316102 0.213201)
(12.0615 -0.312749 0.232819)
(12.4423 -0.380727 0.371251)
(12.2944 -0.397873 0.373951)
(11.9754 -0.41641 0.289681)
(12.2058 -0.421226 0.21324)
(12.8325 -0.321221 0.526034)
(12.827 -0.331259 0.506673)
(12.1335 -0.423181 0.372911)
(12.8147 -0.371393 0.344851)
(12.6253 -0.391632 0.318181)
(12.7812 -0.33556 0.451942)
(12.9365 -0.315864 0.504852)
(12.9513 -0.295935 0.461096)
(12.674 -0.396279 0.400777)
(12.8992 -0.307058 0.417578)
(2.13708 0.721988 -1.49267)
(2.17882 0.573537 -1.6865)
(2.5282 0.333217 -1.43093)
(2.38036 0.509958 -1.41343)
(2.35788 0.515889 -1.54095)
(2.37167 0.445853 -1.64611)
(2.81581 0.353246 -1.47112)
(2.88981 0.238928 -1.3967)
(2.91058 0.119506 -1.34959)
(3.02452 0.201994 -1.5073)
(3.3835 -0.0789906 -1.36953)
(3.49376 -0.13257 -1.35733)
(2.85287 0.0875277 -1.32026)
(3.18342 -0.0667252 -1.39976)
(3.04233 -0.014905 -1.38378)
(2.68688 0.261852 -1.60392)
(11.0197 0.458236 -0.328085)
(10.9387 0.428288 -0.256464)
(10.9997 0.426612 -0.336498)
(11.0917 0.490835 -0.406633)
(11.0435 0.488124 -0.686147)
(10.9597 0.484182 -0.681099)
(10.9394 0.435976 -0.319573)
(11.056 0.499331 -0.552159)
(11.0008 0.510722 -0.678348)
(10.9506 0.483004 -0.689477)
(10.9198 0.359371 -0.387475)
(11.0182 0.418328 -0.498184)
(10.992 0.500882 -0.506224)
(10.873 0.369351 -0.395088)
(10.823 0.376357 -0.404198)
(10.9 0.464951 -0.530828)
(8.51948 0.295905 -0.801138)