/*--------------------------------*- C++ -*----------------------------------*\
  =========                 |
  \\      /  F ield         | OpenFOAM: The Open Source CFD Toolbox
   \\    /   O peration     | Website:  https://openfoam.org
    \\  /    A nd           | Version:  10
     \\/     M anipulation  |
\*---------------------------------------------------------------------------*/
FoamFile
{
    format      ascii;
    class       volScalarField;
    location    "14";
    object      C;
}
// * * * * * * * * * * * * * * * * * * * * * * * * * * * * * * * * * * * * * //

dimensions      [1 3 0 0 0 0 0];

internalField   nonuniform List<scalar> 
75457
(
0.499968
0.499963
0.499977
0.499986
0.499984
0.499984
0.499977
0.499976
0.499996
0.499996
0.499996
0.499986
0.499987
0.499994
0.499795
0.499824
0.499908
0.499852
0.499844
0.499912
0.499866
0.499891
0.499824
0.499822
0.499892
0.4997
0.499687
0.489458
0.487673
0.488893
0.490663
0.486888
0.487044
0.494133
0.494032
0.494594
0.494187
0.486332
0.487583
0.494486
0.49488
0.494509
0.494515
0.497223
0.495821
0.498343
0.49835
0.497045
0.499966
0.499671
0.499634
0.499959
0.499948
0.499704
0.499816
0.499853
0.499872
0.499871
0.499973
0.499956
0.499928
0.499968
0.5
0.5
0.5
0.5
0.5
0.5
0.5
0.5
0.5
0.5
0.5
0.5
0.5
0.5
0.5
0.264447
0.245523
0.265412
0.273365
0.213103
0.230545
0.253783
0.213246
0.201753
0.294609
0.35448
0.25386
0.302712
0.145163
0.320708
0.265112
0.122178
0.5
0.5
0.5
0.5
0.5
0.5
0.5
0.5
0.5
0.5
0.5
0.5
0.5
0.5
0.5
0.5
0.5
0.5
0.5
0.5
0.5
0.5
0.5
0.5
0.5
0.5
0.5
0.5
0.5
0.5
0.5
0.5
0.5
0.5
0.5
0.5
0.5
0.5
0.5
0.5
0.5
0.5
0.5
0.5
0.5
0.5
0.5
0.5
0.5
0.5
0.5
0.5
0.5
0.5
0.5
0.5
0.5
0.5
0.5
0.5
0.5
0.5
0.5
0.5
0.5
0.5
0.5
0.5
0.5
0.5
0.5
0.5
0.5
0.5
0.5
0.5
0.5
0.5
0.5
0.5
0.5
0.5
0.5
0.5
0.5
0.5
0.5
0.5
0.5
0.5
0.5
0.5
0.5
0.5
0.5
0.5
0.499366
0.499207
0.499113
0.498603
0.498264
0.498451
0.5
0.5
0.5
0.5
0.5
0.5
0.5
0.5
0.5
0.5
0.5
0.499997
0.499998
0.499998
0.499997
0.499993
0.499998
0.499997
0.499993
0.499995
0.499998
0.499993
0.499996
0.499998
0.499997
0.5
0.5
0.5
0.5
0.5
0.5
0.5
0.5
0.5
0.5
0.5
0.5
0.5
0.5
0.499935
0.499905
0.499933
0.499959
0.49996
0.499925
0.499964
0.499931
0.499901
0.499944
0.499917
0.499967
0.499976
0.499906
0.499928
0.49997
0.49993
0.496155
0.496357
0.496292
0.496384
0.497347
0.497502
0.497628
0.498379
0.498362
0.498366
0.49611
0.497584
0.498794
0.499108
0.497161
0.498799
0.499104
0.498811
0.498784
0.499106
0.496511
0.495824
0.498773
0.496165
0.498766
0.5
0.5
0.5
0.5
0.5
0.5
0.5
0.5
0.5
0.5
0.5
0.5
0.5
0.5
0.5
0.491163
0.491104
0.48963
0.490353
0.491174
0.491012
0.491089
0.49109
0.49101
0.0908764
0.0949284
0.126498
0.120771
0.130826
0.130748
0.147405
0.160627
0.124107
0.15038
0.172305
0.131264
0.147387
0.319601
0.142785
0.0737205
0.252168
0.271152
0.231339
0.298895
0.0538579
0.0399078
0.0391006
0.0345763
0.5
0.5
0.5
0.5
0.5
0.5
0.5
0.5
0.5
0.5
0.5
0.5
0.5
0.5
0.5
0.5
0.5
0.360699
0.368541
0.361173
0.419427
0.37447
0.363402
0.366792
0.398098
0.36914
0.415821
0.404409
0.494109
0.495966
0.495642
0.492712
0.495916
0.486139
0.486593
0.492852
0.495711
0.493006
0.495771
0.499608
0.499792
0.499523
0.499791
0.499804
0.499677
0.499599
0.499577
0.499536
0.499685
0.499716
0.499635
0.49981
0.499826
0.499768
0.396332
0.351801
0.333038
0.334027
0.315463
0.499969
0.499971
0.499912
0.499959
0.499806
0.499807
0.499953
0.5
0.5
0.5
0.5
0.5
0.5
0.5
0.5
0.5
0.5
0.5
0.5
0.5
0.5
0.5
0.5
0.5
0.5
0.5
0.5
0.5
0.5
0.5
0.5
0.5
0.5
0.5
0.5
0.5
0.5
0.5
0.5
0.5
0.5
0.5
0.5
0.5
0.5
0.5
0.5
0.5
0.5
0.5
0.5
0.5
0.5
0.5
0.5
0.5
0.5
0.5
0.5
0.5
0.499999
0.499979
0.49998
0.499979
0.49998
0.499999
0.499987
0.499995
0.499983
0.499998
0.499988
0.499986
0.499994
0.499987
0.499994
0.499998
0.499978
0.499772
0.499945
0.499951
0.499992
0.499991
0.499959
0.499956
0.499996
0.499996
0.499878
0.49998
0.499978
0.499971
0.499993
0.499996
0.5
0.5
0.5
0.5
0.5
0.5
0.5
0.5
0.5
0.5
0.5
0.5
0.5
0.5
0.5
0.5
0.5
0.5
0.5
0.5
0.5
0.5
0.5
0.5
0.5
0.5
0.5
0.5
0.5
0.5
0.5
0.5
0.5
0.5
0.5
0.5
0.5
0.5
0.5
0.5
0.5
0.5
0.5
0.5
0.5
0.5
0.5
0.5
0.5
0.5
0.5
0.5
0.5
0.5
0.5
0.5
0.5
0.5
0.5
0.5
0.5
0.5
0.5
0.5
0.5
0.5
0.5
0.5
0.486495
0.487204
0.48815
0.486556
0.485307
0.486162
0.480036
0.479861
0.485611
0.487328
0.488313
0.486629
0.477552
0.48051
0.48126
0.481537
0.48095
0.481318
0.497846
0.498748
0.498852
0.499403
0.498476
0.499381
0.497815
0.498645
0.498697
0.499368
0.49921
0.498582
0.499279
0.497761
0.494464
0.494864
0.493959
0.495689
0.49397
0.493847
0.492908
0.494853
0.495274
0.493345
0.493423
0.493032
0.494745
0.496257
0.496281
0.493297
0.495836
0.49394
0.5
0.5
0.5
0.5
0.5
0.5
0.5
0.5
0.5
0.5
0.5
0.5
0.493126
0.496222
0.49251
0.49601
0.492695
0.494383
0.493072
0.493233
0.49392
0.497093
0.497591
0.497329
0.496511
0.496514
0.49757
0.496615
0.498393
0.497753
0.498239
0.49786
0.496471
0.495541
0.49252
0.496628
0.496676
0.497855
0.498118
0.497632
0.492606
0.497462
0.496721
0.496654
0.5
0.5
0.5
0.5
0.5
0.5
0.5
0.5
0.5
0.5
0.5
0.5
0.5
0.5
0.5
0.5
0.5
0.5
0.5
0.498554
0.498491
0.498953
0.498057
0.49869
0.498247
0.498673
0.499221
0.498569
0.499471
0.498301
0.498955
0.498997
0.499038
0.487475
0.487608
0.491472
0.488024
0.489433
0.491232
0.495547
0.495647
0.49457
0.498131
0.497146
0.492855
0.497725
0.496993
0.497117
0.498041
0.497496
0.497405
0.49998
0.499962
0.499957
0.499994
0.499992
0.499968
0.499983
0.499993
0.499992
0.499963
0.499973
0.434198
0.435179
0.439479
0.438545
0.425769
0.410564
0.416139
0.403477
0.437778
0.440543
0.436196
0.414221
0.412813
0.415736
0.41078
0.41136
0.405261
0.441881
0.435169
0.439578
0.434899
0.499957
0.49996
0.499997
0.499988
0.499997
0.499961
0.499958
0.5
0.5
0.499998
0.499995
0.499999
0.5
0.499998
0.5
0.5
0.5
0.496937
0.496541
0.495781
0.494277
0.496868
0.496584
0.49421
0.49423
0.496052
0.49428
0.494632
0.461001
0.46091
0.460903
0.416717
0.45227
0.389724
0.374771
0.41558
0.444073
0.450011
0.387361
0.402525
0.40057
0.499891
0.499889
0.499941
0.499943
0.499854
0.499866
0.499822
0.499815
0.49996
0.499953
0.499876
0.499887
0.499968
0.499837
0.499971
0.499952
0.499891
0.499914
0.499957
0.499967
0.499959
0.499888
0.499786
0.499907
0.499609
0.499906
0.499929
0.499602
0.499558
0.499904
0.499729
0.499577
0.499791
0.499809
0.49928
0.499885
0.499722
0.499105
0.499459
0.499848
0.499927
0.499906
0.499228
0.498108
0.496516
0.496919
0.499278
0.498384
0.496763
0.496241
0.499037
0.499087
0.499158
0.499267
0.499226
0.4984
0.499128
0.498982
0.499134
0.498417
0.496391
0.496797
0.497275
0.496583
0.493035
0.493347
0.497756
0.497308
0.497284
0.496618
0.497446
0.497334
0.496417
0.493407
0.492813
0.493746
0.4966
0.49697
0.497528
0.493854
0.494841
0.498417
0.498415
0.498957
0.499003
0.499118
0.499186
0.499371
0.499065
0.499065
0.498839
0.49891
0.499293
0.498734
0.498637
0.5
0.5
0.5
0.5
0.5
0.5
0.5
0.5
0.5
0.5
0.499783
0.499787
0.499848
0.499867
0.499489
0.499311
0.499844
0.499896
0.499436
0.499822
0.499706
0.499708
0.499845
0.499253
0.499846
0.499699
0.499178
0.498567
0.498604
0.498001
0.496806
0.496623
0.497678
0.498056
0.498008
0.497295
0.496878
0.49816
0.498235
0.498773
0.498605
0.497402
0.496537
0.495893
0.497966
0.498512
0.497874
0.5
0.5
0.5
0.5
0.5
0.5
0.5
0.5
0.5
0.5
0.5
0.5
0.5
0.5
0.5
0.5
0.399913
0.398806
0.400977
0.403775
0.446888
0.430542
0.46231
0.437569
0.420651
0.430385
0.462151
0.436787
0.425542
0.495894
0.495629
0.496314
0.497181
0.497848
0.497185
0.495655
0.496944
0.49757
0.497225
0.498407
0.497111
0.5
0.5
0.5
0.5
0.5
0.5
0.5
0.5
0.5
0.5
0.5
0.5
0.5
0.5
0.5
0.5
0.5
0.5
0.5
0.49409
0.493784
0.496165
0.496146
0.496142
0.496394
0.49575
0.494795
0.496418
0.498311
0.498319
0.495138
0.49838
0.497802
0.497939
0.498757
0.498926
0.497898
0.498612
0.373619
0.383096
0.399334
0.387054
0.383398
0.391222
0.393333
0.402514
0.406842
0.407777
0.421953
0.420223
0.409543
0.413806
0.417957
0.401121
0.5
0.5
0.5
0.5
0.5
0.5
0.5
0.5
0.5
0.5
0.5
0.5
0.5
0.5
0.5
0.5
0.469045
0.443266
0.474998
0.447718
0.469249
0.429644
0.49166
0.478779
0.494034
0.494067
0.491709
0.477875
0.444797
0.42012
0.469431
0.491656
0.49144
0.4917
0.478004
0.435868
0.5
0.5
0.5
0.5
0.5
0.5
0.5
0.5
0.5
0.5
0.5
0.5
0.5
0.5
0.5
0.5
0.5
0.5
0.5
0.5
0.5
0.5
0.5
0.499999
0.499996
0.499997
0.5
0.499996
0.499996
0.499998
0.499997
0.499999
0.499998
0.499998
0.499998
0.499999
0.5
0.499998
0.499999
0.499999
0.5
0.499999
0.5
0.5
0.5
0.499993
0.499993
0.499989
0.49999
0.499998
0.499998
0.499985
0.499986
0.499992
0.499991
0.499998
0.499988
0.49999
0.499997
0.499994
0.499998
0.499997
0.499997
0.499997
0.499597
0.498308
0.498599
0.499637
0.499486
0.498531
0.498476
0.499237
0.498997
0.498798
0.499654
0.499676
0.49916
0.499274
0.499185
0.499332
0.499986
0.499972
0.499972
0.499962
0.499988
0.499984
0.499961
0.499973
0.499989
0.5
0.5
0.5
0.5
0.5
0.5
0.5
0.5
0.5
0.5
0.5
0.5
0.5
0.5
0.5
0.5
0.5
0.5
0.5
0.5
0.5
0.5
0.5
0.5
0.5
0.5
0.5
0.5
0.5
0.5
0.5
0.5
0.499997
0.499999
0.5
0.499998
0.499999
0.499998
0.5
0.5
0.5
0.499997
0.499999
0.499999
0.499999
0.499999
0.499999
0.499998
0.499999
0.499997
0.499997
0.499999
0.499999
0.499999
0.499997
0.499989
0.499992
0.499998
0.499998
0.499997
0.499998
0.499992
0.499991
0.499994
0.499987
0.499987
0.499994
0.499994
0.499993
0.499721
0.499795
0.499644
0.499693
0.499552
0.499472
0.499347
0.499566
0.499476
0.499416
0.498413
0.498526
0.498607
0.498795
0.499514
0.498787
0.406072
0.405921
0.403157
0.406973
0.362461
0.376773
0.407043
0.357539
0.336437
0.5
0.5
0.5
0.499993
0.5
0.5
0.5
0.5
0.499993
0.499995
0.499999
0.499994
0.499991
0.499993
0.499976
0.499989
0.499976
0.499994
0.499994
0.499992
0.499973
0.499976
0.499979
0.499995
0.499977
0.499991
0.499994
0.499996
0.5
0.5
0.5
0.5
0.5
0.5
0.5
0.5
0.5
0.5
0.5
0.5
0.5
0.5
0.5
0.5
0.5
0.5
0.5
0.5
0.5
0.5
0.5
0.5
0.5
0.5
0.5
0.5
0.5
0.5
0.5
0.499999
0.499999
0.499999
0.5
0.5
0.499999
0.499999
0.499999
0.5
0.5
0.5
0.5
0.5
0.5
0.5
0.5
0.5
0.5
0.5
0.5
0.5
0.5
0.5
0.5
0.5
0.5
0.5
0.5
0.5
0.5
0.5
0.5
0.5
0.5
0.5
0.5
0.5
0.5
0.5
0.5
0.5
0.5
0.5
0.5
0.5
0.5
0.5
0.5
0.5
0.499865
0.499868
0.499848
0.499859
0.49978
0.499851
0.499869
0.499891
0.499863
0.499797
0.499855
0.499889
0.499914
0.499899
0.499916
0.499906
0.499886
0.499907
0.499926
0.499999
0.5
0.5
0.5
0.497298
0.497049
0.499992
0.499982
0.5
0.5
0.499997
0.499999
0.5
0.497684
0.495498
0.499249
0.499998
0.499998
0.499999
0.499996
0.498053
0.498521
0.496941
0.498568
0.497899
0.49738
0.497238
0.49487
0.498352
0.498307
0.497121
0.498324
0.495663
0.496267
0.495007
0.498295
0.498079
0.498348
0.496482
0.316118
0.337744
0.346315
0.354435
0.337554
0.316257
0.295364
0.316229
0.316311
0.320499
0.336272
0.368437
0.365318
0.325973
0.353241
0.366996
0.5
0.5
0.5
0.5
0.5
0.5
0.5
0.5
0.5
0.5
0.5
0.5
0.5
0.5
0.5
0.5
0.5
0.5
0.5
0.5
0.5
0.5
0.5
0.5
0.5
0.5
0.5
0.5
0.5
0.5
0.5
0.5
0.5
0.5
0.5
0.5
0.5
0.5
0.5
0.5
0.5
0.5
0.5
0.5
0.5
0.5
0.5
0.5
0.5
0.5
0.5
0.5
0.5
0.5
0.5
0.5
0.5
0.5
0.5
0.5
0.5
0.5
0.5
0.5
0.499999
0.499999
0.499999
0.499999
0.499999
0.5
0.5
0.5
0.5
0.5
0.5
0.5
0.5
0.5
0.5
0.5
0.5
0.5
0.5
0.5
0.5
0.5
0.5
0.5
0.5
0.5
0.5
0.5
0.5
0.5
0.5
0.5
0.5
0.5
0.5
0.5
0.5
0.5
0.5
0.5
0.5
0.5
0.5
0.5
0.5
0.5
0.5
0.5
0.5
0.5
0.5
0.5
0.5
0.5
0.5
0.5
0.5
0.5
0.5
0.5
0.5
0.5
0.5
0.5
0.5
0.5
0.5
0.5
0.5
0.5
0.5
0.5
0.5
0.5
0.5
0.5
0.5
0.5
0.5
0.5
0.5
0.5
0.5
0.5
0.5
0.5
0.5
0.5
0.5
0.5
0.5
0.5
0.5
0.5
0.5
0.5
0.5
0.5
0.5
0.5
0.5
0.5
0.5
0.5
0.5
0.5
0.5
0.5
0.5
0.5
0.5
0.5
0.5
0.5
0.5
0.5
0.5
0.5
0.5
0.5
0.5
0.5
0.5
0.5
0.5
0.5
0.5
0.5
0.499997
0.499993
0.499999
0.499994
0.499996
0.499998
0.499995
0.499994
0.499999
0.341234
0.340459
0.343444
0.339154
0.5
0.5
0.5
0.5
0.5
0.5
0.5
0.5
0.5
0.5
0.5
0.5
0.5
0.5
0.5
0.5
0.5
0.5
0.5
0.5
0.5
0.5
0.481468
0.490608
0.489946
0.481226
0.481137
0.491818
0.492159
0.490126
0.475145
0.487982
0.480292
0.480922
0.469923
0.475722
0.487501
0.488671
0.499999
0.499999
0.499999
0.499999
0.499995
0.499996
0.499998
0.499998
0.5
0.499998
0.499998
0.5
0.499998
0.5
0.499996
0.499998
0.5
0.499999
0.499999
0.5
0.499999
0.499999
0.5
0.5
0.5
0.5
0.5
0.5
0.5
0.5
0.5
0.5
0.5
0.5
0.5
0.5
0.5
0.5
0.5
0.5
0.5
0.457962
0.457133
0.455974
0.467817
0.457195
0.456635
0.469398
0.458004
0.458425
0.467423
0.456768
0.443652
0.442196
0.443228
0.44222
0.453556
0.46465
0.465239
0.459004
0.460347
0.464954
0.45066
0.5
0.5
0.5
0.5
0.5
0.5
0.5
0.5
0.5
0.5
0.5
0.5
0.5
0.5
0.5
0.5
0.5
0.5
0.5
0.5
0.5
0.5
0.5
0.5
0.5
0.5
0.5
0.5
0.5
0.5
0.5
0.5
0.5
0.5
0.5
0.5
0.5
0.5
0.5
0.5
0.5
0.5
0.5
0.5
0.5
0.5
0.5
0.5
0.5
0.5
0.459521
0.452169
0.461611
0.451616
0.457038
0.470274
0.467012
0.472284
0.470628
0.478376
0.48475
0.485232
0.47065
0.480277
0.485819
0.478732
0.477416
0.497498
0.497243
0.499317
0.499337
0.499371
0.499399
0.497572
0.497764
0.497847
0.497826
0.499161
0.499041
0.498105
0.49936
0.498663
0.498839
0.499177
0.499089
0.498853
0.499336
0.499329
0.499008
0.491134
0.492151
0.493315
0.492683
0.493516
0.496284
0.497007
0.493708
0.493182
0.498303
0.498228
0.496987
0.495828
0.498107
0.498406
0.49795
0.496965
0.498391
0.444439
0.455199
0.462102
0.455172
0.465679
0.455698
0.442493
0.452628
0.453907
0.451643
0.462024
0.462542
0.455911
0.463361
0.43565
0.453175
0.451273
0.5
0.5
0.5
0.5
0.5
0.5
0.5
0.5
0.5
0.5
0.497496
0.498947
0.496087
0.496163
0.499705
0.499017
0.497009
0.496792
0.496766
0.497107
0.497848
0.499159
0.497219
0.499774
0.499509
0.498032
0.499184
0.499276
0.499999
0.5
0.499999
0.5
0.5
0.5
0.5
0.5
0.5
0.5
0.5
0.5
0.5
0.49911
0.499078
0.498944
0.498929
0.497968
0.49857
0.498536
0.498664
0.495546
0.495589
0.497162
0.497235
0.497839
0.497158
0.499414
0.499858
0.498632
0.499603
0.499909
0.499606
0.498967
0.499409
0.499792
0.49955
0.499794
0.499413
0.499326
0.49981
0.49899
0.146322
0.162995
0.144339
0.142491
0.188139
0.17113
0.263871
0.268049
0.138185
0.127777
0.228985
0.250712
0.219454
0.219625
0.20478
0.264124
0.247576
0.224503
0.5
0.5
0.5
0.5
0.5
0.5
0.5
0.5
0.5
0.5
0.5
0.5
0.5
0.5
0.5
0.5
0.5
0.5
0.5
0.5
0.5
0.5
0.5
0.5
0.5
0.5
0.5
0.5
0.5
0.5
0.5
0.5
0.243268
0.243992
0.243675
0.247082
0.237986
0.235064
0.265206
0.296138
0.353303
0.233915
0.220885
0.226422
0.298028
0.273762
0.324165
0.250284
0.274264
0.23364
0.5
0.5
0.5
0.5
0.5
0.5
0.5
0.5
0.5
0.5
0.5
0.5
0.5
0.5
0.5
0.5
0.5
0.5
0.5
0.499824
0.499818
0.499894
0.499877
0.499646
0.499633
0.499546
0.499458
0.49953
0.499549
0.499716
0.499754
0.499821
0.499789
0.499514
0.499491
0.499537
0.499683
0.5
0.5
0.5
0.5
0.5
0.5
0.5
0.5
0.5
0.5
0.5
0.5
0.5
0.5
0.5
0.5
0.5
0.5
0.5
0.5
0.5
0.5
0.5
0.5
0.5
0.5
0.5
0.5
0.5
0.5
0.5
0.5
0.5
0.5
0.5
0.5
0.5
0.5
0.5
0.5
0.5
0.5
0.5
0.5
0.5
0.5
0.5
0.5
0.5
0.5
0.5
0.5
0.5
0.5
0.5
0.5
0.5
0.5
0.5
0.5
0.5
0.5
0.5
0.5
0.5
0.5
0.5
0.5
0.5
0.5
0.5
0.5
0.5
0.5
0.5
0.5
0.5
0.5
0.5
0.5
0.499926
0.49992
0.499934
0.49998
0.499974
0.499961
0.499931
0.499961
0.49995
0.499969
0.499983
0.499938
0.499969
0.499975
0.499959
0.499894
0.499883
0.499861
0.499938
0.499895
0.499907
0.499884
0.499854
0.499913
0.49983
0.499926
0.499851
0.499895
0.499977
0.499986
0.499984
0.49996
0.499923
0.5
0.5
0.5
0.5
0.5
0.5
0.5
0.5
0.5
0.5
0.5
0.5
0.5
0.5
0.5
0.493592
0.494349
0.494837
0.494896
0.493055
0.494604
0.491974
0.490467
0.491618
0.5
0.5
0.5
0.5
0.5
0.5
0.5
0.5
0.5
0.5
0.5
0.5
0.5
0.5
0.5
0.5
0.5
0.5
0.5
0.5
0.5
0.5
0.5
0.5
0.5
0.5
0.5
0.5
0.5
0.5
0.5
0.5
0.5
0.5
0.5
0.5
0.5
0.5
0.5
0.5
0.5
0.5
0.5
0.5
0.5
0.5
0.5
0.5
0.5
0.5
0.5
0.5
0.5
0.5
0.5
0.5
0.5
0.5
0.5
0.5
0.5
0.5
0.5
0.5
0.5
0.5
0.5
0.5
0.499168
0.499092
0.498887
0.499018
0.499686
0.499431
0.499708
0.499709
0.498891
0.499788
0.499331
0.499156
0.499246
0.499911
0.499936
0.499363
0.499722
0.499664
0.49989
0.499936
0.499945
0.499934
0.499923
0.499362
0.499927
0.499683
0.499997
0.499997
0.499996
0.499996
0.5
0.5
0.5
0.499994
0.499994
0.499994
0.499994
0.499997
0.499995
0.499998
0.499998
0.499997
0.499997
0.499997
0.5
0.5
0.5
0.5
0.5
0.5
0.5
0.5
0.5
0.5
0.5
0.5
0.5
0.5
0.5
0.5
0.5
0.5
0.5
0.5
0.5
0.5
0.5
0.5
0.5
0.5
0.49426
0.495767
0.495115
0.494283
0.494779
0.495158
0.494495
0.494386
0.494259
0.493931
0.493998
0.494454
0.49388
0.498226
0.499392
0.499532
0.499331
0.499154
0.498236
0.49794
0.498311
0.499501
0.499209
0.499172
0.499062
0.499266
0.499232
0.499185
0.499478
0.499812
0.499718
0.499123
0.499296
0.499826
0.499841
0.499851
0.499845
0.49986
0.499691
0.499717
0.49891
0.499601
0.499713
0.499484
0.499981
0.499992
0.499974
0.499988
0.499983
0.499995
0.499983
0.499959
0.499983
0.499994
0.499989
0.499982
0.499985
0.49996
0.437532
0.438255
0.452986
0.458216
0.442511
0.444322
0.433203
0.43104
0.441301
0.440785
0.429948
0.5
0.5
0.5
0.5
0.5
0.5
0.5
0.5
0.5
0.5
0.5
0.5
0.5
0.5
0.5
0.5
0.5
0.5
0.5
0.5
0.5
0.5
0.5
0.5
0.5
0.5
0.5
0.5
0.5
0.5
0.5
0.5
0.5
0.5
0.5
0.5
0.5
0.5
0.5
0.5
0.5
0.5
0.5
0.5
0.5
0.5
0.5
0.5
0.5
0.5
0.5
0.5
0.5
0.5
0.5
0.5
0.5
0.5
0.5
0.5
0.5
0.5
0.5
0.5
0.5
0.5
0.5
0.5
0.5
0.5
0.5
0.5
0.5
0.5
0.5
0.5
0.5
0.5
0.5
0.5
0.5
0.5
0.5
0.5
0.5
0.5
0.5
0.5
0.5
0.5
0.5
0.5
0.5
0.5
0.5
0.5
0.5
0.5
0.5
0.499856
0.499863
0.499846
0.499847
0.499941
0.49991
0.499933
0.499877
0.499989
0.499988
0.499966
0.499987
0.499978
0.499964
0.499988
0.499989
0.499941
0.499966
0.493201
0.483944
0.492726
0.491608
0.492792
0.486947
0.495806
0.496395
0.486957
0.496056
0.489415
0.482935
0.489464
0.489459
0.489826
0.492262
0.496402
0.492772
0.489996
0.496246
0.48445
0.489817
0.49419
0.496306
0.491971
0.485443
0.485435
0.499708
0.499648
0.49968
0.499763
0.499508
0.490747
0.487665
0.49044
0.496333
0.483911
0.49782
0.487542
0.42975
0.442163
0.472506
0.438987
0.425031
0.480484
0.455004
0.497187
0.428148
0.430617
0.462375
0.451383
0.416777
0.47152
0.462112
0.423801
0.414455
0.465255
0.475219
0.43951
0.449891
0.473282
0.468155
0.42782
0.423715
0.450705
0.5
0.5
0.5
0.5
0.5
0.5
0.5
0.5
0.5
0.5
0.5
0.5
0.5
0.5
0.5
0.5
0.5
0.5
0.5
0.5
0.49993
0.499919
0.499954
0.499963
0.499962
0.499969
0.49996
0.499949
0.499913
0.499936
0.499963
0.499959
0.499959
0.499961
0.499954
0.5
0.499948
0.499938
0.5
0.499997
0.499891
0.499987
0.5
0.49996
0.499944
0.49989
0.5
0.499999
0.5
0.5
0.5
0.5
0.485151
0.475141
0.476304
0.454905
0.446263
0.467365
0.468704
0.493423
0.445474
0.468263
0.49074
0.488932
0.490767
0.488389
0.478322
0.494785
0.456664
0.468767
0.495555
0.488765
0.494094
0.496803
0.5
0.5
0.5
0.5
0.5
0.5
0.5
0.5
0.5
0.5
0.5
0.5
0.5
0.5
0.5
0.5
0.5
0.5
0.5
0.5
0.5
0.5
0.5
0.5
0.5
0.5
0.5
0.5
0.5
0.5
0.5
0.5
0.5
0.5
0.5
0.430009
0.403593
0.427065
0.389928
0.40022
0.400431
0.408052
0.435815
0.499999
0.499998
0.5
0.5
0.5
0.499999
0.499999
0.499997
0.5
0.5
0.499997
0.499999
0.5
0.5
0.5
0.5
0.5
0.5
0.5
0.5
0.5
0.5
0.5
0.5
0.5
0.5
0.5
0.5
0.5
0.5
0.5
0.5
0.499999
0.5
0.5
0.5
0.5
0.499999
0.499999
0.499999
0.499999
0.499999
0.5
0.499999
0.499999
0.499999
0.499999
0.499999
0.499685
0.499777
0.499821
0.499883
0.49977
0.499837
0.499865
0.499871
0.499885
0.499902
0.49971
0.499888
0.499906
0.499891
0.499596
0.49972
0.499844
0.499871
0.499879
0.499892
0.499606
0.499873
0.5
0.5
0.5
0.5
0.5
0.5
0.5
0.5
0.5
0.5
0.5
0.5
0.5
0.5
0.5
0.5
0.365971
0.377508
0.393869
0.391347
0.376643
0.384964
0.407126
0.412558
0.411437
0.407556
0.426303
0.42493
0.395456
0.406304
0.400897
0.416537
0.390975
0.385901
0.499793
0.495935
0.496408
0.498569
0.498376
0.498285
0.495139
0.495474
0.499814
0.499811
0.498408
0.498309
0.499044
0.499676
0.499642
0.499615
0.5
0.5
0.5
0.5
0.5
0.5
0.5
0.5
0.5
0.5
0.5
0.5
0.5
0.5
0.5
0.5
0.5
0.5
0.5
0.5
0.499998
0.499998
0.499992
0.499994
0.5
0.5
0.5
0.5
0.499997
0.499996
0.5
0.5
0.5
0.5
0.5
0.5
0.4982
0.498175
0.498356
0.498252
0.499204
0.498433
0.499515
0.498444
0.499512
0.499789
0.499608
0.499701
0.499691
0.499625
0.499497
0.499633
0.499685
0.499322
0.49954
0.49984
0.499668
0.499744
0.499309
0.499503
0.499805
0.499836
0.499416
0.499598
0.499808
0.499996
0.499993
0.499978
0.499985
0.499985
0.499987
0.499988
0.499997
0.499992
0.499997
0.499996
0.499995
0.49999
0.499979
0.49998
0.499994
0.49999
0.499985
0.499831
0.499861
0.499929
0.499923
0.499844
0.499897
0.499821
0.499869
0.499879
0.5
0.5
0.499999
0.5
0.5
0.5
0.5
0.5
0.499998
0.499992
0.499991
0.5
0.5
0.5
0.5
0.5
0.5
0.5
0.5
0.5
0.5
0.5
0.5
0.5
0.5
0.5
0.5
0.5
0.5
0.5
0.5
0.5
0.5
0.5
0.5
0.5
0.5
0.5
0.5
0.5
0.5
0.5
0.5
0.5
0.5
0.5
0.5
0.5
0.5
0.5
0.5
0.49963
0.499578
0.499552
0.499637
0.499885
0.499886
0.499924
0.499935
0.499621
0.499852
0.499896
0.499873
0.499906
0.499852
0.499854
0.5
0.5
0.5
0.5
0.5
0.5
0.5
0.5
0.5
0.5
0.5
0.5
0.5
0.5
0.5
0.5
0.5
0.45034
0.450826
0.460333
0.4624
0.481966
0.48165
0.465479
0.462985
0.485805
0.48759
0.461664
0.484422
0.486119
0.479408
0.486516
0.484242
0.485773
0.486887
0.48871
0.490279
0.490525
0.488293
0.490456
0.489711
0.481444
0.483499
0.482567
0.477862
0.490918
0.490299
0.489457
0.488718
0.490838
0.485602
0.47962
0.480328
0.480467
0.5
0.5
0.5
0.499999
0.5
0.5
0.5
0.5
0.5
0.499999
0.5
0.499999
0.5
0.5
0.5
0.5
0.499666
0.499568
0.499818
0.499712
0.499655
0.499336
0.499405
0.499367
0.499522
0.499667
0.499746
0.499403
0.49984
0.4998
0.499382
0.499689
0.499675
0.499702
0.5
0.5
0.5
0.5
0.5
0.5
0.5
0.5
0.5
0.5
0.5
0.5
0.5
0.5
0.5
0.5
0.5
0.5
0.5
0.5
0.5
0.5
0.5
0.5
0.5
0.5
0.5
0.5
0.5
0.5
0.5
0.5
0.5
0.5
0.5
0.5
0.5
0.5
0.5
0.5
0.5
0.5
0.5
0.5
0.5
0.5
0.5
0.499672
0.499693
0.499683
0.499722
0.498423
0.498753
0.498957
0.498316
0.498369
0.499531
0.499347
0.499673
0.499705
0.498615
0.499327
0.499423
0.497789
0.497799
0.496589
0.497048
0.497051
0.494954
0.494928
0.492318
0.492376
0.496283
0.493325
0.493279
0.492577
0.5
0.5
0.5
0.5
0.5
0.5
0.5
0.5
0.5
0.5
0.5
0.5
0.5
0.5
0.5
0.499859
0.49989
0.499947
0.499879
0.5
0.5
0.5
0.5
0.5
0.5
0.5
0.5
0.5
0.5
0.499975
0.5
0.5
0.5
0.5
0.5
0.5
0.5
0.5
0.5
0.5
0.5
0.5
0.5
0.5
0.5
0.5
0.5
0.499698
0.499666
0.499544
0.499553
0.499721
0.49977
0.499655
0.499503
0.499477
0.499592
0.499404
0.499286
0.499705
0.499454
0.499258
0.499463
0.499373
0.499152
0.44504
0.439806
0.423892
0.425794
0.444161
0.439208
0.445154
0.42139
0.425786
0.43049
0.422651
0.424466
0.444431
0.442614
0.440697
0.431516
0.42349
0.419712
0.411943
0.423218
0.499984
0.499977
0.499984
0.49998
0.499985
0.495924
0.495942
0.495827
0.495844
0.497523
0.49751
0.497895
0.497954
0.494509
0.494838
0.495059
0.496649
0.49767
0.496955
0.499141
0.499141
0.499743
0.499762
0.499142
0.499141
0.499739
0.499719
0.499768
0.499428
0.498131
0.5
0.5
0.5
0.5
0.5
0.5
0.5
0.5
0.5
0.5
0.5
0.49964
0.499559
0.499664
0.499669
0.499674
0.499652
0.499566
0.499733
0.499686
0.499643
0.499671
0.499616
0.499832
0.499826
0.499747
0.5
0.5
0.5
0.5
0.5
0.5
0.5
0.5
0.5
0.5
0.5
0.5
0.5
0.5
0.5
0.5
0.5
0.5
0.5
0.5
0.5
0.499927
0.499927
0.49994
0.499938
0.499949
0.499962
0.5
0.5
0.5
0.5
0.5
0.5
0.5
0.499988
0.5
0.499996
0.499989
0.5
0.5
0.5
0.5
0.5
0.5
0.5
0.5
0.5
0.5
0.5
0.5
0.5
0.5
0.5
0.5
0.5
0.5
0.5
0.5
0.5
0.5
0.5
0.5
0.5
0.5
0.5
0.5
0.5
0.5
0.5
0.5
0.5
0.5
0.499994
0.499997
0.499995
0.499997
0.499987
0.499986
0.499999
0.499986
0.499987
0.499999
0.499999
0.499987
0.499986
0.499999
0.5
0.5
0.5
0.5
0.5
0.5
0.5
0.5
0.5
0.5
0.5
0.497855
0.497552
0.495675
0.498657
0.497412
0.496666
0.49725
0.496173
0.495595
0.497041
0.497594
0.49819
0.497982
0.498622
0.497963
0.5
0.5
0.5
0.5
0.5
0.5
0.5
0.5
0.5
0.5
0.5
0.5
0.5
0.5
0.5
0.5
0.5
0.5
0.499885
0.499849
0.499917
0.499915
0.499926
0.499766
0.499699
0.499744
0.499925
0.49992
0.499848
0.499973
0.499957
0.499748
0.499823
0.499707
0.499721
0.499676
0.499973
0.499957
0.499971
0.5
0.5
0.5
0.5
0.5
0.5
0.5
0.5
0.5
0.5
0.5
0.5
0.5
0.5
0.5
0.5
0.5
0.5
0.5
0.5
0.5
0.5
0.5
0.5
0.5
0.5
0.5
0.5
0.5
0.5
0.5
0.5
0.5
0.5
0.5
0.5
0.5
0.5
0.5
0.5
0.367251
0.354433
0.38285
0.376752
0.329893
0.341871
0.332468
0.330871
0.330156
0.34332
0.297018
0.365543
0.319028
0.184027
0.214986
0.19299
0.331942
0.490065
0.488144
0.489749
0.490621
0.486992
0.481311
0.487188
0.483059
0.490561
0.485672
0.487053
0.480176
0.488678
0.483847
0.479363
0.5
0.5
0.5
0.5
0.5
0.5
0.5
0.5
0.5
0.5
0.5
0.5
0.5
0.5
0.5
0.5
0.5
0.5
0.5
0.5
0.5
0.5
0.5
0.5
0.5
0.5
0.5
0.5
0.5
0.5
0.5
0.5
0.5
0.5
0.5
0.5
0.5
0.5
0.5
0.5
0.5
0.5
0.5
0.5
0.49999
0.49637
0.495859
0.495641
0.499823
0.498893
0.499992
0.499595
0.499961
0.49998
0.499983
0.499979
0.499979
0.499981
0.499981
0.499957
0.499932
0.499932
0.499905
0.499908
0.499951
0.499952
0.499926
0.499976
0.499933
0.499934
0.499972
0.5
0.5
0.5
0.5
0.5
0.5
0.5
0.5
0.5
0.5
0.5
0.5
0.5
0.5
0.5
0.5
0.5
0.5
0.5
0.5
0.5
0.5
0.5
0.5
0.5
0.5
0.5
0.5
0.5
0.5
0.5
0.49999
0.499987
0.49998
0.499982
0.49998
0.499983
0.49999
0.49998
0.499985
0.499981
0.5
0.5
0.5
0.5
0.5
0.5
0.5
0.5
0.5
0.5
0.5
0.5
0.5
0.5
0.5
0.5
0.5
0.5
0.5
0.5
0.5
0.5
0.5
0.5
0.5
0.5
0.5
0.5
0.5
0.5
0.5
0.5
0.5
0.5
0.5
0.5
0.5
0.5
0.5
0.5
0.5
0.5
0.5
0.5
0.5
0.5
0.5
0.5
0.5
0.5
0.5
0.5
0.5
0.5
0.5
0.5
0.5
0.5
0.5
0.5
0.5
0.5
0.5
0.5
0.5
0.5
0.5
0.5
0.5
0.5
0.5
0.5
0.5
0.5
0.5
0.5
0.5
0.5
0.5
0.5
0.5
0.5
0.5
0.5
0.5
0.5
0.5
0.5
0.5
0.5
0.5
0.5
0.5
0.5
0.5
0.5
0.5
0.5
0.5
0.5
0.5
0.5
0.5
0.5
0.5
0.5
0.5
0.5
0.5
0.5
0.5
0.5
0.5
0.5
0.5
0.5
0.5
0.5
0.5
0.5
0.5
0.5
0.5
0.5
0.5
0.5
0.5
0.5
0.5
0.5
0.499997
0.499996
0.499991
0.49999
0.5
0.499996
0.5
0.499999
0.499997
0.5
0.5
0.5
0.5
0.5
0.5
0.5
0.5
0.5
0.5
0.5
0.5
0.5
0.5
0.5
0.5
0.5
0.5
0.5
0.5
0.5
0.5
0.5
0.5
0.5
0.5
0.5
0.5
0.5
0.5
0.5
0.5
0.5
0.5
0.5
0.5
0.5
0.5
0.5
0.5
0.5
0.5
0.5
0.5
0.5
0.5
0.5
0.5
0.5
0.5
0.5
0.5
0.5
0.5
0.5
0.5
0.5
0.5
0.5
0.5
0.5
0.5
0.5
0.5
0.5
0.5
0.5
0.5
0.5
0.5
0.5
0.5
0.5
0.5
0.5
0.5
0.5
0.5
0.5
0.5
0.5
0.5
0.5
0.5
0.5
0.5
0.5
0.5
0.5
0.5
0.5
0.5
0.5
0.5
0.5
0.5
0.5
0.5
0.5
0.5
0.5
0.5
0.5
0.5
0.5
0.5
0.5
0.5
0.5
0.5
0.5
0.5
0.5
0.5
0.5
0.5
0.5
0.499408
0.499474
0.499661
0.499733
0.499596
0.499873
0.49987
0.49973
0.499901
0.499875
0.499768
0.499764
0.499734
0.499618
0.499434
0.499545
0.499878
0.499684
0.499871
0.499869
0.499873
0.499629
0.499677
0.499473
0.499797
0.499829
0.499793
0.499835
0.499838
0.499803
0.499806
0.499848
0.499841
0.499827
0.499789
0.499812
0.499821
0.5
0.5
0.5
0.5
0.5
0.5
0.5
0.5
0.5
0.5
0.5
0.5
0.5
0.5
0.5
0.5
0.499996
0.499998
0.499998
0.499988
0.499994
0.499988
0.499993
0.499997
0.499997
0.499987
0.499986
0.499993
0.499986
0.49999
0.499999
0.5
0.499998
0.499998
0.5
0.5
0.499999
0.5
0.499998
0.499998
0.5
0.5
0.5
0.499999
0.5
0.5
0.5
0.499997
0.499998
0.499998
0.499996
0.499995
0.499998
0.499997
0.499994
0.499995
0.499983
0.499989
0.499989
0.499987
0.499995
0.499994
0.499997
0.499997
0.499992
0.499995
0.499996
0.499995
0.499995
0.499995
0.5
0.5
0.5
0.5
0.5
0.5
0.5
0.5
0.5
0.5
0.5
0.5
0.5
0.5
0.5
0.5
0.5
0.5
0.5
0.5
0.5
0.5
0.5
0.5
0.5
0.5
0.5
0.5
0.5
0.5
0.5
0.5
0.5
0.5
0.5
0.5
0.5
0.407566
0.403769
0.410081
0.394011
0.389552
0.387129
0.375072
0.374836
0.370479
0.376503
0.384616
0.370739
0.463268
0.460761
0.488954
0.488275
0.443776
0.431068
0.493406
0.493108
0.493575
0.493631
0.494018
0.489136
0.489894
0.49018
0.291799
0.286895
0.33171
0.379934
0.423411
0.40939
0.428571
0.416002
0.433118
0.389086
0.391005
0.428472
0.407339
0.411945
0.397175
0.41378
0.426878
0.410692
0.0624387
0.0724285
0.0861881
0.100326
0.0912117
0.0648409
0.103727
0.125534
0.11511
0.0497153
0.0523259
0.046123
0.0642516
0.0610156
0.0634721
0.0833134
0.0930414
0.0587017
0.5
0.5
0.5
0.5
0.5
0.5
0.5
0.5
0.5
0.5
0.5
0.5
0.499999
0.5
0.5
0.499999
0.499998
0.499998
0.499998
0.499998
0.499999
0.499999
0.5
0.5
0.499998
0.499998
0.5
0.499999
0.499999
0.499999
0.499999
0.499999
0.499997
0.499999
0.499999
0.499999
0.499997
0.499999
0.499997
0.499999
0.499999
0.499994
0.499993
0.499999
0.499995
0.499967
0.499979
0.49998
0.499975
0.499968
0.499994
0.499994
0.499988
0.499999
0.49999
0.49999
0.499996
0.499997
0.5
0.499999
0.5
0.499998
0.5
0.5
0.499998
0.499999
0.499999
0.5
0.5
0.5
0.5
0.5
0.5
0.323981
0.300322
0.320379
0.358794
0.352292
0.358703
0.374135
0.379824
0.365659
0.34331
0.383079
0.398009
0.399959
0.415738
0.467212
0.467333
0.419973
0.41537
0.394561
0.448942
0.448283
0.41298
0.394905
0.5
0.5
0.5
0.5
0.5
0.5
0.5
0.5
0.5
0.5
0.5
0.5
0.5
0.5
0.495049
0.489576
0.490371
0.486995
0.465996
0.475845
0.459551
0.487842
0.49435
0.496292
0.48164
0.465264
0.496294
0.485182
0.47185
0.486048
0.480043
0.480228
0.48638
0.494141
0.496274
0.487838
0.496695
0.497679
0.491859
0.491457
0.494468
0.497152
0.496875
0.494782
0.495801
0.496394
0.497346
0.497291
0.497136
0.498271
0.498017
0.497495
0.498055
0.497512
0.498181
0.498521
0.498768
0.498772
0.497578
0.49871
0.497833
0.498308
0.497729
0.494616
0.4959
0.495261
0.493346
0.488699
0.488638
0.493832
0.490932
0.491337
0.336754
0.336793
0.338054
0.308323
0.31206
0.331038
0.34381
0.356301
0.325289
0.332401
0.332189
0.33117
0.49595
0.49623
0.495413
0.495435
0.494559
0.495963
0.494243
0.494034
0.493405
0.495107
0.494166
0.49423
0.493559
0.494063
0.493648
0.493578
0.499999
0.499999
0.5
0.499999
0.499999
0.499999
0.5
0.5
0.499999
0.5
0.5
0.5
0.5
0.5
0.5
0.499999
0.5
0.5
0.493053
0.492759
0.490259
0.344366
0.499685
0.499409
0.499339
0.452604
0.478894
0.431729
0.124196
0.49897
0.492391
0.499993
0.5
0.5
0.5
0.5
0.5
0.5
0.5
0.5
0.5
0.499967
0.5
0.493118
0.5
0.493938
0.49971
0.499628
0.492517
0.492396
0.498639
0.492545
0.492651
0.495764
0.185896
0.296848
0.432807
0.491767
0.495641
0.268281
0.361611
0.499607
0.499613
0.282416
0.332979
0.490627
0.473098
0.0297203
0.5
0.499714
0.5
0.499785
0.499866
0.0469523
0.5
0.14414
0.431153
0.499141
0.499973
0.499996
0.499996
0.499996
0.39047
0.374031
0.5
0.499997
0.373242
0.5
0.499997
0.355792
0.499991
0.499985
0.5
0.239655
0.499988
0.5
0.209249
0.5
0.491093
0.5
0.5
0.5
0.5
0.5
0.5
0.496355
0.499994
0.499995
0.5
0.499981
0.5
0.499997
0.5
0.5
0.5
0.499976
0.5
0.5
0.475592
0.490497
0.5
0.5
0.5
0.499642
0.5
0.380781
0.499989
0.49998
0.481059
0.37257
0.5
0.499959
0.481715
0.366655
0.499943
0.5
0.5
0.4822
0.5
0.499937
0.499908
0.396754
0.5
0.499999
0.5
0.5
0.43576
0.5
0.499753
0.378022
0.5
0.5
0.5
0.5
0.5
0.5
0.5
0.499728
0.5
0.499311
0.5
0.5
0.5
0.499474
0.5
0.5
0.499456
0.5
0.499395
0.5
0.5
0.49936
0.499976
0.5
0.5
0.5
0.5
0.5
0.5
0.5
0.5
0.5
0.5
0.5
0.5
0.5
0.5
0.5
0.5
0.5
0.5
0.5
0.5
0.5
0.5
0.5
0.5
0.5
0.5
0.5
0.5
0.5
0.5
0.5
0.5
0.5
0.5
0.5
0.5
0.5
0.5
0.5
0.5
0.5
0.5
0.5
0.5
0.5
0.5
0.5
0.5
0.5
0.5
0.5
0.5
0.5
0.5
0.5
0.5
0.5
0.5
0.5
0.5
0.5
0.5
0.5
0.5
0.5
0.5
0.5
0.5
0.5
0.5
0.5
0.5
0.5
0.5
0.5
0.499999
0.5
0.5
0.5
0.5
0.5
0.5
0.5
0.5
0.5
0.5
0.5
0.5
0.5
0.5
0.5
0.5
0.5
0.5
0.5
0.5
0.5
0.5
0.5
0.5
0.5
0.5
0.5
0.5
0.5
0.5
0.5
0.5
0.5
0.5
0.5
0.5
0.5
0.5
0.5
0.5
0.5
0.5
0.5
0.5
0.5
0.499999
0.5
0.5
0.5
0.5
0.5
0.5
0.5
0.499984
0.499999
0.5
0.5
0.5
0.5
0.5
0.5
0.5
0.5
0.5
0.5
0.5
0.5
0.499999