/*--------------------------------*- C++ -*----------------------------------*\
  =========                 |
  \\      /  F ield         | OpenFOAM: The Open Source CFD Toolbox
   \\    /   O peration     | Website:  https://openfoam.org
    \\  /    A nd           | Version:  10
     \\/     M anipulation  |
\*---------------------------------------------------------------------------*/
FoamFile
{
    format      ascii;
    class       volScalarField;
    location    "14";
    object      eff_dif;
}
// * * * * * * * * * * * * * * * * * * * * * * * * * * * * * * * * * * * * * //

dimensions      [0 2 -1 0 0 0 0];

internalField   nonuniform List<scalar> 
75457
(
-0.0344506
-0.0311912
-0.0271955
-0.0247692
-0.0201739
-0.021523
-0.0303561
-0.0300115
-0.0194353
-0.0139799
-0.0179734
-0.0194897
-0.0189508
-0.0166588
-0.00372701
-0.00420525
-0.00398802
-0.00411945
-0.00457226
-0.00410731
-0.00356402
-0.00428165
-0.00428289
-0.00463892
-0.0044105
-0.0047716
-0.00442714
-0.000745486
-0.000878028
-0.000463285
-9.65443e-05
-0.000409536
-0.000538258
-0.000547479
3.81102e-05
-0.000897313
-0.000772351
-0.00111096
-0.00116052
-0.000272904
-0.000455242
-0.000241269
-0.000686508
-0.0118131
-0.0120112
-0.0108307
-0.0109218
-0.011423
-0.00566252
-0.00632912
-0.00671616
-0.00604176
-0.00612454
-0.00631575
-0.00670249
-0.00678332
-0.0065261
-0.00679413
-0.00605395
-0.00634431
-0.006185
-0.00597975
0.0310782
0.0313428
0.0310827
0.0314119
0.0316441
0.0316697
0.0313255
0.031364
0.03163
0.0314193
0.0311556
0.0314089
0.031398
0.0310831
0.0312872
-0.00730791
-0.00850006
-0.00697993
-0.00849697
-0.0105831
-0.00491421
-0.00522435
-0.00728578
-0.00809575
-0.00796032
-0.00786893
-0.0050796
-0.0060183
-0.00501893
-0.00504074
-0.00589774
-0.00524687
-0.00685729
-0.0070096
-0.00704292
-0.00738752
-0.00698752
-0.0068163
-0.00799821
-0.00722181
0.0316721
0.0315612
0.0318228
0.031839
0.0317054
0.0315558
0.0314754
0.0319265
0.0319284
0.0315426
0.0315531
0.0222665
0.0229291
0.0253942
0.0249679
0.022329
0.0239102
0.0239434
0.0234114
0.0237692
0.0254609
0.0252444
0.0257875
0.0263275
0.0250798
0.0245173
0.0233188
0.0257415
0.0247368
0.013798
0.0137611
0.0131817
0.0140729
0.0136656
0.0151924
0.0148789
0.0147646
0.0147561
0.00791571
0.00745773
0.00802436
0.00757135
0.00700552
0.00751475
0.00753768
0.00659382
-0.0069982
-0.00703805
-0.00643499
-0.006634
-0.00701887
-0.00667934
-0.00639111
-0.00590757
-0.00436955
-0.00441883
-0.00594712
-0.00567391
-0.00521169
-0.00591255
-0.00479697
0.0163764
0.0179792
0.0182218
0.0175584
0.0179795
0.0142593
0.015648
0.0172112
0.0162151
0.0171798
0.0144987
0.013181
0.0137759
-0.00933891
-0.00980248
-0.00967695
-0.00987474
-0.00964977
-0.00977939
-0.00911145
-0.00980307
-0.00964767
-0.00988184
-0.00986624
-0.00970651
-0.00962899
-0.00975481
-0.00854252
-0.00718349
-0.00965901
-0.00707148
-0.00739529
-0.00899559
0.0122569
0.0130432
0.0117232
0.0124642
0.0106982
0.0115085
0.0138238
0.0135463
0.0126419
0.00993106
0.00991533
-0.00754494
-0.00739326
-0.00780444
-0.0077649
-0.00770924
-0.00764101
-0.00748197
-0.00735292
-0.00696638
-0.00778706
-0.00753502
-0.00732072
-0.00767609
-0.00728862
0.0063671
0.00542496
0.00582474
0.004129
0.00468205
0.00544282
0.0053688
0.00659939
0.00616966
0.0052309
0.0046286
0.0039715
0.00621408
0.0046619
-0.00698318
-0.00705406
-0.00680116
-0.00675878
-0.00705439
-0.00699113
-0.00706611
-0.00703339
-0.00720548
-0.00676076
-0.00701258
-0.00649208
-0.007109
-0.00719059
-0.00694032
-0.00689626
-0.00705386
-0.0102486
-0.0098892
-0.00993384
-0.00977718
-0.0110267
-0.00945164
-0.00947105
-0.00886579
-0.00974381
-0.0101826
-0.00933955
-0.00986632
-0.012785
-0.0126928
-0.0126962
-0.0128096
-0.0123938
-0.0128901
-0.0132309
-0.0128606
-0.0126134
-0.0132312
-0.0126932
-0.0125499
-0.0126907
-0.00502311
-0.00474087
-0.00507245
-0.00444033
-0.00446533
-0.00434287
-0.00412887
-0.00407491
-0.00403731
-0.00459272
-0.0048972
-0.00478383
-0.00396345
-0.0044361
-0.00433426
-0.000413657
-0.000429571
-0.000224511
-0.000373546
-0.000199791
-0.000334185
-0.000583746
-0.000614474
-0.000171747
-0.000102579
0.000222153
-3.8127e-05
-0.000221635
0.000113408
0.000529385
0.000188976
-0.000123401
0.000258802
6.28105e-05
4.52014e-05
-9.51318e-05
-0.000152894
-0.00398274
-0.00451199
-0.00312987
-0.00338707
-0.00376973
-0.00396253
-0.00425731
-0.00422355
-0.00439251
-0.00426316
-0.00430446
-0.00830108
-0.00846496
-0.00863816
-0.00866193
-0.00858482
-0.00825855
-0.00832867
-0.0087542
-0.00898774
-0.00867751
-0.0089391
-0.00803202
-0.00833239
-0.00851437
-0.00864309
-0.00841036
-0.00856559
-0.0166206
-0.0153378
-0.0150658
-0.0166319
-0.0194445
-0.0192611
-0.0188035
-0.0182675
-0.018129
-0.0176254
-0.0190661
-0.00393466
-0.00433193
-0.00506461
-0.00488619
-0.00451404
-0.00476143
-0.00426459
-0.00507769
-0.00502709
-0.00457008
-0.00440694
-0.000215524
-0.000130364
-0.000354866
-0.000447405
-0.000145142
-0.000126206
-0.000416223
-0.000156056
-0.000452361
-0.000576895
-0.000537878
-0.000229487
-0.000453562
-0.000914906
-0.00078273
-0.0050676
-0.00402273
-0.00630685
-0.00517141
-0.00500811
-0.00739147
-0.00777274
-0.00741884
-0.00775624
-0.00776248
-0.007402
-0.00823257
0.0498049
0.0545847
0.0432405
0.0458599
0.0486661
0.0507302
0.0503739
0.0532038
0.0458607
0.0502554
0.0484784
0.0494915
0.0456342
0.0500787
0.044332
0.0458391
0.0477418
0.0427875
0.0346303
0.0341779
0.034955
0.0356903
0.0365886
0.0375643
0.0348468
0.0354665
0.0379509
0.0414185
0.0381612
0.0383508
0.040042
0.0259944
0.0232255
0.0206516
0.0222846
0.0268912
0.0235956
0.0221507
0.0235493
0.0231958
0.0213053
0.0285701
0.0285398
0.0216425
0.0231874
0.0206724
0.0268743
0.0289776
0.0290208
0.0250182
0.0250032
0.0256705
0.0269875
-0.00897518
-0.00932866
-0.00959381
-0.00956559
-0.00968431
-0.00908361
-0.00915077
-0.00930996
-0.00940207
-0.00906565
-0.00953295
-0.00907833
-0.00926141
-0.00915969
-0.00936629
-0.00933498
-0.0247658
-0.0281017
-0.0142345
-0.0226284
-0.0128837
-0.0198746
-0.0175951
-0.0146347
-0.0130054
-0.0180231
-0.0324386
-0.0275649
-0.0173054
-0.0250453
-0.013041
-0.0150496
0.00215799
0.00200432
0.00217252
0.00300929
0.0033734
0.00397986
0.00181032
0.00148625
0.00313708
0.00310796
0.00398769
0.00363859
0.00336965
0.00329577
0.00313256
0.00248192
0.00175031
0.0025527
0.0337631
0.0377737
0.0363309
0.032958
0.0342743
0.0370212
0.0405688
0.0396544
0.0345165
0.0405079
0.0421921
0.0404636
0.0365766
0.0333584
0.0341532
0.0352042
0.026892
0.0262432
0.0267454
0.0265169
0.0256708
0.0274571
0.0280329
0.0274142
0.0267831
0.0277247
0.0271655
0.0263463
0.0272022
0.0256229
0.0263074
0.0278351
0.0283134
0.0123155
0.0121646
0.0118891
0.0122572
0.0122499
0.0123038
0.0123723
0.0124535
0.0124905
0.0123368
0.0119834
0.0120547
0.012559
0.0122048
0.0123196
0.0116081
0.011607
-0.00374682
-0.00480054
-0.00640802
-0.00545526
-0.00439438
-0.00448924
-0.00390817
-0.00386831
-0.0049405
-0.00459702
-0.00619888
-0.00636366
-0.00487993
-0.00329423
-0.00576925
-0.00483959
-0.00471357
-0.00559446
-0.00351809
-0.00361957
-0.00352708
-0.00347198
-0.00278702
-0.00325445
-0.0032986
-0.00336573
-0.00289402
-0.00310924
-0.00320786
-0.00281395
-0.00279699
-0.00300091
-0.00571246
-0.00531417
-0.00627912
-0.00719447
-0.00718252
-0.00656214
-0.00612607
-0.00601239
-0.00592177
-0.00696728
-0.00702674
-0.00675679
-0.0063498
-0.00585902
-0.00617267
-0.00684382
-0.00713019
-0.007241
0.0213533
0.0171107
0.0179244
0.0246577
0.0209707
0.0151126
0.0180526
0.0181708
0.0146575
0.0230148
0.0182024
0.0153019
-0.00915821
-0.00894733
-0.00870731
-0.0086925
-0.00904868
-0.00872116
-0.00770143
-0.00810505
-0.00881572
-0.00888327
-0.00880785
-0.00800959
-0.00812032
-0.00854826
-0.00871999
-0.00849044
-0.00484368
-0.00530396
-0.00443347
-0.00471183
-0.00562326
-0.00554385
-0.0053227
-0.00420368
-0.00419026
-0.00430098
-0.00426497
-0.00528233
-0.00546611
-0.00439544
-0.00402182
-0.00503653
0.00470536
0.00394818
0.00328234
0.00647453
0.00735837
0.00495628
0.00565976
0.00244153
0.0040084
0.00468803
0.00627031
0.00520135
0.00625382
0.0070566
0.00678602
0.00373539
0.00383451
0.0051198
0.00322025
-0.00210735
-0.00110298
-0.00207552
-0.00359941
-0.002689
-0.00158697
-0.00345321
-0.00300681
-0.00210916
-0.00256871
-0.00208744
-0.00352367
-0.00229707
-0.0019436
-0.000983402
-0.000800937
-0.000918063
-0.0014275
-0.00119687
-0.00110185
-0.00110214
-0.00103129
-0.00137812
-0.00092338
-0.00141534
-0.000871068
-0.00172615
-0.000749549
-0.000663634
-0.000958055
-0.000807764
-0.0010397
-0.0037964
-0.00440479
-0.00348206
-0.00211126
-0.00257838
-0.00622586
-0.00371983
-0.00341138
-0.00341412
-0.00451538
-0.00594448
-0.00673039
-0.00701801
-0.00709491
-0.00700339
-0.00818445
-0.00885486
-0.0082345
-0.00919014
-0.0061999
-0.00604064
-0.00841977
-0.00987468
-0.00948234
-0.00863036
-0.00845635
-0.00974511
-0.00834751
-0.00800249
-0.00871573
-0.00885234
-0.00732578
-0.00993839
-0.00994788
-0.009662
-0.00982885
-0.0096472
-0.00981273
-0.00989999
-0.00958139
-0.00941719
-0.00961207
-0.00979697
-0.00958658
-0.00962674
-0.00959871
-0.00967386
-0.00957822
-0.00962461
-0.00702092
-0.00736728
-0.00844375
-0.00836011
-0.00744558
-0.0079011
-0.00829322
-0.0083713
-0.00773749
-0.00819855
-0.00756141
-0.00358205
-0.00410612
-0.00257776
-0.0019554
-0.00211771
-0.00205562
-0.00225572
-0.000798874
-0.00204629
-0.00222119
-0.00218243
-0.00221958
-0.0012648
-0.00254555
-0.00234907
-0.00233896
-0.00264705
-0.00255007
-0.00196448
-0.00246438
-0.00222212
-0.0026735
-0.00264439
-0.00215854
-0.00219164
-0.00237504
-0.00197853
-0.00234796
-0.00217928
-0.00194504
-0.00221002
-0.00191953
-0.00216678
-0.00229149
-0.00197902
-0.00578074
-0.00598839
-0.00591612
-0.00583053
-0.00540569
-0.00492734
-0.00587192
-0.00465273
-0.00544729
-0.00421118
-0.00493525
-0.00533247
-0.00565504
-0.00510234
-0.00495575
-0.00638341
-0.00531931
-0.0047266
-0.00450931
-0.00444724
-0.00741623
-0.00764919
-0.00781162
-0.00774049
-0.0068897
-0.00707605
-0.00769134
-0.00772915
-0.00758454
-0.00642825
-0.00677604
-0.00672466
-0.00642852
-0.00706834
-0.00693575
-0.00725568
-0.0062702
-0.00654205
-0.00714305
-0.00720536
-0.00643148
-0.0066213
-0.00576159
-0.00688119
-0.00629447
-0.00694875
-0.00645605
-0.00754182
-0.00584525
-0.00568424
-0.00578736
-0.00636087
-0.00679895
-0.00643891
-0.00713257
-0.0063052
-0.00608415
-0.00626409
-0.00617647
-0.00741357
-0.00697243
-0.00821894
-0.00766748
-0.00848419
-0.00921834
-0.00882024
-0.00873052
-0.00821106
-0.00829056
-0.00913928
-0.00905634
-0.00951573
-0.00855346
0.0223372
0.0228637
0.0238189
0.0228173
0.0236215
0.0223528
0.0233889
0.0222296
0.022808
0.0238058
-0.00940535
-0.00917383
-0.00880849
-0.00886427
-0.00946795
-0.00945653
-0.00892563
-0.0091217
-0.00942832
-0.00879318
-0.00927259
-0.00908668
-0.00909712
-0.00946709
-0.00912615
-0.00942382
-0.00946316
-0.0092774
-0.00872503
-0.00957601
-0.00932755
-0.00900103
-0.00969236
-0.00855284
-0.00936818
-0.00847925
-0.00829788
-0.00932779
-0.00955487
-0.00845625
-0.00943878
-0.00950612
-0.00897994
-0.00864695
-0.00963916
-0.00898951
-0.00896355
0.0117628
0.0121653
0.0128702
0.012291
0.0119578
0.0130951
0.00966091
0.0112451
0.0114717
0.0111304
0.0104198
0.0125244
0.0120043
0.0125413
0.0116554
0.0112164
-0.0137397
-0.0147782
-0.0138592
-0.0131914
-0.0133659
-0.0113519
-0.0118108
-0.012428
-0.0134505
-0.0140983
-0.0101378
-0.0117427
-0.0126577
-0.0111684
-0.0121823
-0.0103511
-0.0100698
-0.010069
-0.0110706
-0.0112097
-0.011882
-0.0102907
-0.00984202
-0.00959209
-0.0107626
0.0124308
0.0114236
0.0110596
0.0111279
0.0111905
0.00969802
0.00937216
0.00878493
0.00883062
0.00939686
0.00953022
0.00860952
0.0103906
0.0094823
0.0111903
0.0112954
0.0093333
0.0104525
0.0100685
-0.00932227
-0.00938665
-0.00982866
-0.0093774
-0.0107102
-0.00956095
-0.00914389
-0.00979029
-0.00971673
-0.00931285
-0.00917101
-0.0099262
-0.0100511
-0.0105445
-0.0100556
-0.00934437
-0.00924544
-0.0101677
-0.00990508
-0.00560259
-0.00682887
-0.00631682
-0.00590308
-0.00578826
-0.0063299
-0.00557961
-0.00511296
-0.00629658
-0.00613054
-0.00627139
-0.00579926
-0.00664302
-0.00628087
-0.00668051
-0.00662581
0.0216723
0.0222385
0.0215688
0.0213621
0.0226233
0.0234983
0.0232507
0.0223413
0.0223743
0.0232079
0.0233748
0.0224581
0.0232982
0.0238463
0.0245119
0.0239587
-0.0116664
-0.0136358
-0.00984227
-0.00978998
-0.0148103
-0.0176986
-0.00666702
-0.00780124
-0.0104721
-0.0130556
-0.00986328
-0.0105459
-0.0122003
-0.0174778
-0.0156996
-0.00828184
-0.0132869
-0.0102445
-0.0137631
-0.0162403
0.0582159
0.0522664
0.0479259
0.0475896
0.0566939
0.0579929
0.0515022
0.0563088
0.0504915
0.0524862
0.0500669
0.0505044
0.0473276
0.0471929
0.0529089
0.0206864
0.0193701
0.0240132
0.0256796
0.0235187
0.0204521
0.0258216
0.0223757
0.0248361
0.0280958
0.0270292
0.0282647
0.0299892
0.027792
-0.0140923
-0.0148349
-0.0143826
-0.0151352
-0.0132449
-0.0135174
-0.0119129
-0.010786
-0.0131036
-0.0130442
-0.011251
-0.0107884
-0.0135222
-0.01183
-0.0115102
-0.012125
-0.00510234
-0.00480961
-0.0048762
-0.00502979
-0.00480794
-0.00512129
-0.00475184
-0.005098
-0.00528083
-0.00462089
-0.00467467
-0.00461702
-0.00520124
-0.00503344
-0.00469869
-0.00489988
-0.0048394
-0.00517709
-0.00497791
-0.0101746
-0.0102472
-0.00982308
-0.010503
-0.0106508
-0.0105724
-0.00993391
-0.0105855
-0.0105113
-0.00912023
-0.0096882
-0.00947092
-0.0100402
-0.00973471
-0.0108091
-0.0105051
-0.00900222
-0.00941438
-0.00915224
-0.00923028
-0.00891102
-0.0089748
-0.00941732
-0.00887883
-0.00903503
0.0305472
0.02972
0.0297821
0.0302273
0.0304005
0.030009
0.0297927
0.029827
0.0305354
0.0303326
0.0303915
0.0301417
0.0302232
0.0300018
0.0303187
0.0303818
0.0304065
0.0301992
0.0298496
0.0304744
-0.00647151
-0.00728081
-0.00641043
-0.00693365
-0.00642021
-0.00609359
-0.00624779
-0.00702284
-0.0060324
-0.00634629
-0.00654958
-0.00673047
-0.00414311
-0.00422449
-0.00381907
-0.00366995
-0.00348643
-0.0042067
-0.00420866
-0.00434369
-0.00410006
-0.00365829
-0.00364525
-0.00395507
-0.00400011
-0.00363789
-0.00378325
-0.00373514
-0.00390657
-0.00376011
-0.00310495
-0.00293429
-0.00322378
-0.00293568
-0.00307455
-0.00345718
-0.00351771
-0.00366355
-0.00370782
-0.00299972
-0.00343295
-0.00311396
-0.00375398
-0.00363338
-0.00325876
-0.00308989
-0.00376978
-0.00347106
-0.00303923
-0.00224824
-0.00235757
-0.00250059
-0.00183759
-0.00214217
-0.00189467
-0.00187601
-0.00257385
-0.00222938
-0.00266668
-0.00260495
-0.00186843
-0.00190533
-0.00202855
-0.00269278
-0.00262217
-0.00600217
-0.00595721
-0.00628843
-0.00631275
-0.006361
-0.00586677
-0.00590493
-0.00688119
-0.0066153
-0.00946438
-0.00920609
-0.00930177
-0.00943851
-0.00949762
-0.00953516
-0.00938947
-0.00967748
-0.00938521
-0.00921399
-0.00951807
-0.00932893
-0.00389928
-0.00373919
-0.00388194
-0.00389392
-0.00383085
-0.00403761
-0.0039739
-0.00415376
-0.00416298
-0.003963
-0.00442588
-0.00436038
-0.00429949
-0.00440832
-0.00424744
-0.00440404
0.030961
0.0311681
0.0308965
0.0306342
0.0302865
0.0303618
0.0298855
0.0298288
0.0301021
0.0306362
-0.00824864
-0.0079982
-0.00824937
-0.00801727
-0.00833337
-0.00822632
-0.00850314
-0.0084781
-0.00863017
-0.00865787
-0.00836206
-0.00818606
-0.00839792
-0.00882304
-0.00872117
-0.00848985
-0.00840508
-0.00838034
-0.00492179
-0.00522363
-0.00483954
-0.00491424
-0.00486061
-0.0048479
-0.00507858
-0.00487106
-0.00501354
-0.00543669
-0.00519093
-0.00525344
-0.00502193
-0.00520169
-0.00478319
-0.00488491
-0.00508896
-0.00488153
0.00888202
0.00826621
0.00767784
0.00865744
0.00683225
0.00626256
0.00928921
0.00875787
0.00744212
0.00896674
0.00798446
0.00706848
0.00784677
0.00788238
0.0308199
0.0307179
0.0305978
0.0304242
0.0308725
0.0304661
0.0302856
0.0303199
0.0306268
0.0304436
0.0306149
0.0307394
0.0303129
0.0302794
0.0301685
0.030211
0.0305896
0.030385
0.0305305
0.0302984
0.0435021
0.0421518
0.0352888
0.0383788
0.0279267
0.0322658
0.0177709
0.0335081
0.0334563
0.0308192
0.0365774
0.0267214
0.0383802
0.0435515
0.0393481
0.0468739
0.0284378
0.0397087
0.0352043
-0.00853908
-0.00903194
-0.00547527
-0.00407714
-0.00979552
-0.0117649
-0.0115722
-0.0137111
-0.00511288
-0.00513946
-0.0156804
-0.0124236
-0.00717115
-0.0112924
-0.01259
-0.00798787
-0.00823131
-0.0130517
-0.0102448
-0.0100805
-0.00054083
-0.00117068
-0.00104557
-0.00106826
-0.00140545
-0.000645011
-0.00190341
-0.00108757
-0.00128701
-0.00133233
-0.00123112
-0.00117561
-0.00181309
-0.000801062
-0.001877
-0.00198311
-0.00170215
-0.00173015
-0.000808936
-0.0183384
-0.0185752
-0.0191975
-0.0185344
-0.0187374
-0.019316
-0.0172691
-0.0184605
-0.0191441
-0.0169129
-0.0176494
-0.0173454
-0.0179198
-0.0185191
-0.018014
-0.0184294
0.0325019
0.0324526
0.0323194
0.0323959
0.0326683
0.0326855
0.0325626
0.0325912
0.0324016
0.032266
0.032785
0.0325611
0.0327255
0.0327205
0.0323452
0.0322676
0.0324352
0.0326056
0.0327366
0.0323324
0.000161054
1.25892e-05
0.000573737
0.00099139
-0.00193126
-0.002012
-0.00244073
-0.00329463
-0.00121048
0.000175464
0.000549707
-0.0019304
-0.00227371
-0.00279744
-0.003527
-0.00341201
-0.00110383
-0.002914
-0.00266781
-0.00161146
0.032681
0.0325734
0.0326566
0.0326995
0.0326888
0.0327045
0.032627
0.0327594
0.0328224
0.0328283
0.0328948
0.0326058
0.0327748
0.0327402
0.032852
0.0328342
0.0327213
-0.00562882
-0.0055454
-0.00567687
-0.005932
-0.00585173
-0.00554262
-0.00534761
-0.00573296
-0.00581747
-0.00607217
-0.00539338
-0.00497621
0.0307846
0.0305996
0.0311468
0.0311489
0.0309072
0.0308507
0.0305156
0.0307284
0.0309473
0.0311124
0.0311523
0.0307827
0.0306241
0.0307407
0.0305386
0.0307398
0.0305383
0.0308011
0.0308677
0.0305278
0.0307699
0.0244004
0.023963
0.024059
0.0244746
0.0245099
0.0236733
0.0240576
0.0256964
0.0258646
0.0256513
0.0249652
0.0246035
0.024242
0.0241805
0.0242054
0.0248944
0.0247826
0.0247885
0.00952516
0.00978732
0.0098642
0.00944704
0.00971279
0.0104163
0.0100528
0.0100898
0.00984274
0.011
0.0108237
0.0110727
0.0109048
0.00997507
0.00970261
0.0507202
0.0456496
0.0398198
0.0412378
0.0475748
0.0456778
0.0571394
0.0425078
0.0493586
0.0442569
0.0567005
0.0565076
0.0522286
0.0454877
-0.000801224
-0.000488766
-0.00104998
-0.00163923
-0.0014403
-0.00178349
-0.000864754
-0.000938401
-0.00127966
-0.000950511
-0.00180809
-0.00137717
-0.00104978
-0.000515746
-0.000746889
-0.00126835
0.0263514
0.0242986
0.0259365
0.0241393
0.0238039
0.0241931
0.0245135
0.024567
0.025421
0.0258231
0.028278
0.0277692
0.0267881
0.0291023
0.0296875
0.0271073
0.0281372
0.0319664
0.0319284
0.0315277
0.0316258
0.0317301
0.0317805
0.0320005
0.0320371
0.031495
0.0316111
0.0319477
0.0319765
0.0319317
0.0318118
0.0317674
0.0319336
0.0317407
-0.0110304
-0.00879613
-0.00877138
-0.0120537
-0.00800613
-0.0129072
-0.0183684
-0.00800506
-0.0106027
-0.0113023
-0.0105146
-0.0104055
-0.0113939
-0.0085564
-0.0167144
-0.0165887
-0.0137517
-0.0147347
0.0191591
0.0188201
0.0204149
0.0200875
0.0193927
0.0180916
0.0184978
0.0200367
0.0205122
0.02012
0.0198752
0.0201775
0.0185122
0.0182641
0.0176295
0.0194102
0.0183007
0.0189174
0.0178819
0.0193834
0.018687
0.0184549
-0.00443249
-0.00485464
-0.00472718
-0.0046267
-0.00356906
-0.00372023
-0.00250536
-0.00268996
-0.00365165
-0.00465368
-0.0044245
-0.00380834
-0.00269936
-0.00268161
-0.00273656
-0.00282896
-0.00446129
-0.00499924
-0.00429952
-0.00439293
-0.00481833
-0.00465084
-0.00442071
-0.00472655
-0.00502325
-0.00484518
-0.00491263
-0.00415224
-0.00419961
-0.00409011
-0.00427275
-0.00424277
-0.00498518
-0.00496582
-0.00487774
-0.0045818
-0.00421421
-0.00466136
-0.00466298
-0.00453357
-0.00458782
-0.00474386
-0.00496878
-0.00501566
-0.00452303
-0.00488513
-0.00451339
-0.00466575
-0.0044075
-0.00488007
-0.00409606
-0.00441004
-0.0042105
-0.00494438
-0.0045663
-0.0042203
-0.00493484
-0.00750381
-0.00806653
-0.00795593
-0.00950409
-0.00616495
-0.00491099
-0.00863849
-0.00834706
-0.00336431
-0.00415541
-0.00157062
-0.00483073
-0.00233662
-0.00522061
-0.00468274
-0.00679456
-0.00656139
-0.00494051
-0.00432552
-0.000912634
-0.00321208
-0.00134909
0.00756276
0.00594725
0.00528723
0.00577079
0.00638222
0.00795788
0.00784071
0.00678189
0.00606511
0.00521995
0.00562796
0.00578248
0.00541472
0.00645204
0.00631097
0.00738318
0.00617333
0.0054365
0.00609474
-0.00734024
-0.00690976
-0.00711295
-0.00715574
-0.00728364
-0.00732453
-0.00751917
-0.00781385
-0.00733149
-0.00790066
-0.00741272
-0.00724625
-0.0072816
-0.00721581
-0.0072749
-0.00723394
-0.00727927
-0.00390671
-0.00410947
-0.00559512
-0.00505718
-0.00486199
-0.00512205
-0.00536491
-0.00504117
-0.00443446
-0.00526897
-0.00462566
-0.00528354
-0.00495827
-0.00500193
-0.0040074
-0.00471498
-0.00468606
-0.00523291
-0.00415809
-0.00472856
-0.0037726
-0.00497932
-0.00468261
-0.00499969
-0.0050984
-0.00364549
-0.00445613
-0.00477576
-0.00463478
-0.00401891
-0.00491473
-0.000171279
-0.000447027
-0.000165656
-1.39069e-05
-0.00012173
-0.000197549
-0.000299732
-0.000315379
3.31481e-05
-0.000153162
-0.000376102
-0.000305817
-0.000442315
-0.000523009
-0.000120751
-0.000255849
-0.000598469
-0.000494395
-0.000478851
-0.000488313
-0.000213797
-3.86045e-05
-0.000663904
-4.14886e-05
-0.000273789
-0.000213665
-0.000464124
-0.000616933
-0.000284214
-0.000442517
-0.000234561
-9.2255e-05
-6.62631e-05
-0.000277828
-0.000523288
-0.00027811
-0.000237398
-0.000580113
-4.86727e-05
-0.000289839
-0.0116108
-0.0126865
-0.0161294
-0.0167967
-0.0167565
-0.0175034
-0.012591
-0.0138178
-0.0144344
-0.0106901
-0.0123548
-0.0134055
-0.0159072
-0.015165
-0.0150591
-0.0137983
-0.0133733
0.000747191
0.000755577
0.000360875
0.00163903
0.000996145
0.000127978
-0.000138228
0.00170315
0.00141536
0.000462493
-0.0109103
-0.0109937
-0.0115942
-0.0118745
-0.0109939
-0.010987
-0.0111814
-0.0118253
-0.0117954
-0.0112946
-0.0113721
-0.0111416
-0.0111353
-0.0105141
-0.010496
-0.0109383
-0.010881
-0.0108696
-0.00839802
-0.00835751
-0.00851317
-0.00814119
-0.00857969
-0.00821708
-0.00834463
-0.00817014
-0.00789561
-0.00795341
-0.00866265
-0.00873739
-0.00843782
-0.000621051
-0.00036031
-0.000728787
-0.000430026
-0.000893096
-0.0010392
-0.000739674
-0.000217174
-0.000139876
-0.000642376
-0.000902436
-0.000693683
-0.000203405
-0.000116218
-0.0103068
-0.0101917
-0.0107015
-0.0103867
-0.010176
-0.0101211
-0.0105522
-0.0104771
-0.0104181
-0.0103432
-0.0103632
-0.0106979
-0.010348
-0.0100273
-0.0109507
-0.0196161
-0.0187302
-0.0183844
-0.0186063
-0.0174463
-0.0173219
-0.0204452
-0.0201521
-0.0201077
-0.0203946
-0.0210437
-0.0212815
-0.0180853
-0.0179643
-0.0188718
-0.0186689
-0.0188395
-0.0204832
0.0315498
0.0315458
0.0318026
0.0311475
0.0312623
0.0312236
0.0313321
0.0311522
0.0314738
0.0314511
-0.00754591
-0.00760409
-0.00760285
-0.0078282
-0.00751203
-0.00780441
-0.00747552
-0.00756427
-0.00737009
-0.00744898
-0.00749017
-0.00775116
-0.00781994
-0.00760493
-0.00784164
-0.00746416
-0.00760043
-0.00762615
-0.00743059
-0.00759748
-0.00766034
-0.00760592
-0.0032961
-0.00330048
-0.00341194
-0.00329477
-0.00304524
-0.00319586
-0.00289038
-0.00308246
-0.00283422
-0.00287839
-0.0021476
-0.00233914
-0.00254569
-0.0025104
-0.00228806
-0.00201166
-0.00211252
-0.00244543
0.0332137
0.0341822
0.0354507
0.0341455
0.0327147
0.0351986
0.0333797
0.0343258
0.0306343
0.0324948
0.0340681
0.0312509
0.0315814
0.0303384
0.0290588
0.0321643
0.0299676
0.0288372
0.0299126
0.0335828
0.0314377
0.030474
0.0279006
0.0331859
0.0339889
0.0353382
0.0348044
0.0392751
0.0384519
0.0356446
0.038279
0.0314745
0.0307667
0.0391286
0.0401671
0.0367036
0.0394442
0.0325588
0.0326732
0.0327308
0.0325429
0.0326474
0.0325419
0.0327164
0.0326695
0.0325187
0.0326451
0.0324659
0.0325034
0.0327205
0.0326605
0.0326627
0.0327181
0.0320917
0.0279497
0.0275306
0.0298905
0.0309907
0.032825
0.0307529
0.0308341
0.0271637
0.026488
0.0312062
0.0290216
0.0306014
0.0278616
0.0299639
0.0276936
0.0274399
0.0287611
0.02934
0.0281864
0.0288678
0.0300098
0.0298533
0.0291177
0.0283838
0.0300181
0.0304311
0.0299368
0.0246063
0.0241447
0.0263939
0.0277536
0.0158727
0.014857
0.0249681
0.0247999
0.0156094
0.0178256
0.0203869
0.0202814
0.022015
0.0194981
0.0170301
0.014935
0.0304155
0.0295732
0.0299333
0.0304469
0.0296487
0.0309702
0.030567
0.0297697
0.029788
0.0326354
0.0322031
0.0318853
0.0313345
0.0302125
0.0313454
0.0307819
0.0318428
0.0312292
0.0305722
0.0321238
0.0102682
0.0121224
0.00679797
0.00383594
0.00502844
0.00787761
0.0152676
0.00690293
0.010764
0.0107205
0.00443984
0.00945434
0.010182
0.00709465
0.0100792
0.0167092
0.0167672
0.0152269
0.0132262
0.0115702
0.0205896
0.0176973
0.0177405
0.0149213
0.0188757
0.0189834
0.0189907
0.0163206
0.0148887
0.01595
0.0160657
0.0168416
0.017198
0.0318725
0.0319168
0.0317312
0.0316253
0.0322849
0.0322565
0.0318354
0.0316765
0.0324343
0.0324443
0.0318896
0.0321728
0.0324265
0.032393
0.0322909
-0.00952107
-0.00935705
-0.00985745
-0.00976205
-0.0102347
-0.00924301
-0.00904109
-0.0108407
-0.0104497
0.0341657
0.0332918
0.0322823
0.0322234
0.0329664
0.0323376
0.0345742
0.0320358
0.0357954
0.0343505
0.0321402
0.0339971
0.0346377
0.0350047
0.0354653
0.0312504
0.0315575
0.0333378
0.0355086
0.0341788
0.0317452
0.0326217
0.00644406
0.00715228
0.00645645
0.00458135
0.0055908
0.00647673
0.00331835
0.00457316
0.00488142
0.00276182
0.00396672
0.00203142
0.00280638
0.00170607
0.00125758
0.00210625
0.00332977
0.00488915
0.000937168
0.00378815
0.0306572
0.0289645
0.0337055
0.0291512
0.0310489
0.0374412
0.0346948
0.0308908
0.0346167
0.0302582
0.032717
0.0385855
0.0364157
0.0371333
0.0405409
0.0338704
0.0331078
0.0313915
0.0358684
0.0298628
0.0330506
0.0307486
0.0346779
0.0390742
0.0399702
0.0381003
-0.00928075
-0.0102083
-0.00996213
-0.00937601
-0.00939079
-0.0102273
-0.00958869
-0.00918567
-0.0108881
-0.00913103
-0.0094892
-0.0102868
-0.00957604
-0.00904248
-0.00894196
-0.00934989
-0.00945662
-0.0102606
-0.0093685
-0.00877675
-0.00873997
-0.00876761
-0.00875418
-0.00952026
-0.00894767
-0.00944692
-0.00504729
-0.00478976
-0.00548391
-0.00595516
-0.00494088
-0.00516927
-0.00484257
-0.00364626
-0.00555558
-0.00297442
-0.0055327
-0.00439892
-0.0039142
-0.00461723
-0.00554902
-0.00550999
-0.00489627
-0.00467965
0.0124716
0.0119556
0.00848541
0.0105302
0.00915865
0.00717717
0.00388012
0.00865825
0.00893095
0.00646687
0.00153239
0.00533441
0.00675117
0.027984
0.0287703
0.0291127
0.0277439
0.0294063
0.0291849
0.0295711
0.0287058
0.0288371
0.0278199
0.0280114
0.0298995
0.0292628
-0.0112163
-0.0110566
-0.0118866
-0.011261
-0.0113152
-0.0118331
-0.0130144
-0.0125272
-0.0139323
-0.0120523
-0.012212
-0.0117596
-0.013201
-0.0115296
-0.0101993
-0.00997973
-0.0104089
-0.0108638
-0.0112291
-0.0113817
-0.0116473
-0.0103525
-0.0106056
-0.010812
-0.0105224
-0.010234
-0.0106271
-0.0104511
-0.0101934
-0.00973007
-0.0100872
-0.010332
-0.0104494
-0.00985004
-0.00959392
-0.00958118
-0.00944092
-0.0098154
-0.010113
-0.0102218
-0.0104627
-0.00997733
-0.0097553
-0.0100434
-0.00787961
-0.00754622
-0.00758733
-0.0074588
-0.00749371
-0.00740096
-0.00742447
-0.00774717
-0.00749327
-0.00740798
-0.00757436
-0.00753812
-0.00753806
-0.00805859
-0.00315245
-0.00474544
-0.00473823
-0.00353513
-0.00447772
-0.00481373
-0.00526571
-0.00302172
-0.00312094
-0.00384481
-0.00363042
0.0254668
0.0270764
0.0261598
0.0272817
0.026533
0.0274436
0.0265479
0.0257858
0.026886
0.0260017
0.02741
0.0251713
0.0267158
0.0354815
0.0383324
0.0406421
0.0489775
0.0467579
0.0352425
0.0523415
0.0515429
0.0386463
0.0443341
0.03684
0.039066
0.0472304
0.0511414
0.0539605
0.0423636
0.0442114
0.0408389
0.0505934
0.0485608
0.0467677
0.0437673
0.036237
0.0362424
0.0362057
0.0349162
0.0346351
0.0333669
0.0337738
0.0342965
0.0335573
0.0325695
0.0326597
0.0224112
0.0217461
0.0214316
0.0210312
0.0235441
0.0230316
0.021289
0.0227322
0.0219039
0.0209726
0.0201824
0.0204706
0.0222208
0.0236299
0.0238158
0.0209837
0.0204329
0.0227769
0.0198623
0.0340419
0.0343324
0.0342104
0.0342039
0.0349485
0.0347812
0.0345638
0.0343874
0.0343849
0.0347885
0.0355493
0.035248
0.0356844
-0.0063173
-0.00223616
0.000159929
-0.00369141
-0.00166921
0.00197312
0.00177353
0.00248947
0.00324109
-0.00128323
0.00104618
-0.0063976
-0.0096428
-0.00128189
0.00202441
-0.00433983
-0.00209691
-0.0100973
-0.00532056
-0.0108798
-0.00395869
-0.00890637
-0.00888904
-0.00869489
-0.0089229
-0.0086285
-0.00870343
-0.00879927
-0.00916344
-0.00860039
-0.0083292
-0.0089748
-0.00877894
-0.00863698
-0.00853065
-0.00859927
-0.00874161
-0.00845947
-0.00844159
-0.0114788
-0.0132277
-0.0102878
-0.0107361
-0.00995562
-0.0122447
-0.0109508
-0.0107657
-0.0107936
-0.0109785
-0.0124007
-0.0146887
-0.0125767
-0.012519
-0.0110571
-0.00895326
-0.00999695
-0.00977017
-0.00942188
-0.01067
-0.0128324
-0.0103198
-0.00839373
-0.00908799
-0.00883369
-0.0109962
-0.00958224
-0.00295583
-0.00324948
-0.00350491
-0.00349097
-0.00377712
-0.0119555
-0.0141052
-0.0126475
-0.014121
-0.0185909
-0.0119704
-0.0158084
-0.0191611
-0.0186393
-0.0231171
-0.0246585
-0.0209799
-0.0203903
-0.0212938
-0.0162539
-0.000802307
-0.000837534
-0.00105206
-0.00192994
-0.00154312
-0.00143756
-0.00159388
-0.00135068
-0.00152677
-0.00116678
-0.000259523
-0.00164623
-0.00141593
-0.000872763
0.000134371
-0.000723503
-0.00164167
-0.00109474
0.0185258
0.0165564
0.0125803
0.0195665
0.00677613
-0.00353305
0.0188461
0.00923715
0.0178301
0.0118652
0.0132767
-0.0162613
-0.00843479
-0.0268029
0.00729679
0.00673547
0.00369675
-0.00584117
0.00100255
0.00592238
-0.0172185
-0.0167982
-0.0168802
-0.0153737
-0.0157618
-0.0146317
-0.0144959
-0.0143059
-0.0156905
-0.0159215
-0.0139288
-0.0145905
-0.0150904
-0.0141851
-0.0106104
-0.00889619
-0.00965364
-0.0114036
-0.00703199
-0.00774057
-0.00918031
-0.0115499
-0.00901031
-0.00859139
-0.011425
-0.0101585
-0.00626978
-0.00697201
-0.00622269
-0.00679919
-0.00687373
-0.00714913
-0.00484402
-0.00592581
-0.00508952
-0.00774491
-0.0111491
-0.00630735
-0.012278
-0.0105709
-0.0123432
-0.0117604
-0.00180377
-0.00247745
-0.00215214
-0.00423563
-0.00663601
-0.0072208
-0.00910907
-0.00919196
-0.00357478
-0.00667983
-0.00406581
-0.00422652
-0.000413063
-0.00203376
-0.00232887
-0.0020737
0.00141619
0.00117144
0.000192009
0.00315891
0.00320186
-0.000324961
-0.00259277
0.000222087
0.00133583
0.00291946
0.00350028
-0.00100871
0.00136056
0.00107325
-0.000371207
0.000773686
0.0137875
0.014415
0.0114844
0.0119109
0.0144784
0.0126359
0.0121385
0.0127555
0.0132488