/*--------------------------------*- C++ -*----------------------------------*\
  =========                 |
  \\      /  F ield         | OpenFOAM: The Open Source CFD Toolbox
   \\    /   O peration     | Website:  https://openfoam.org
    \\  /    A nd           | Version:  10
     \\/     M anipulation  |
\*---------------------------------------------------------------------------*/
FoamFile
{
    format      ascii;
    class       volScalarField;
    location    "14";
    object      k;
}
// * * * * * * * * * * * * * * * * * * * * * * * * * * * * * * * * * * * * * //

dimensions      [0 2 -2 0 0 0 0];

internalField   nonuniform List<scalar> 
75457
(
1.93344
2.18838
1.33277
0.68484
1.43558
1.52998
1.72128
1.63069
0.490581
0.484428
0.442218
1.2656
1.07578
0.527118
0.0832377
0.0678446
0.0160795
0.0494533
0.0581653
0.0103011
0.0281539
0.0185597
0.0779375
0.0795446
0.0475861
0.098303
0.100927
0.115726
0.0978714
0.181939
0.106695
0.150077
0.147207
0.0576257
0.0482161
0.0703163
0.0608755
0.143577
0.13412
0.0611937
0.0638119
0.0569985
0.0651427
0.107239
0.199541
0.0413227
0.0222879
0.113398
0.618527
0.198282
0.394047
0.555247
1.27948
0.389012
0.229725
0.250382
1.00483
0.971527
0.828888
1.35927
1.12569
0.691341
0.452192
0.318195
0.0563119
0.328451
0.0868027
0.374975
0.48293
0.907723
0.463442
0.99004
0.362125
0.0296547
0.452204
0.12933
0.137169
2.63191
2.04234
1.46737
2.09306
2.0398
2.34652
1.75499
1.19515
1.18446
1.25338
1.3893
2.44953
1.77107
1.73022
1.48313
1.75064
1.42719
0.913318
0.334106
0.361786
0.397413
1.73727
0.843243
0.803699
1.24794
0.118652
0.00360414
0.040149
0.0558003
0.187039
0.040576
1.07595
0.30918
0.376807
0.778327
0.877216
0.704552
0.0676765
0.833575
1.28632
0.457978
0.449121
1.53907
0.0187288
0.0718001
0.0767949
0.186055
0.444256
0.270843
0.864542
0.439961
0.846591
0.0930165
0.169515
0.905228
0.275659
0.588758
0.519393
0.870987
0.361372
0.744361
0.712839
1.30888
0.13461
0.265356
0.460778
0.151369
0.188695
0.652574
0.588602
0.525968
1.22137
0.700874
1.81687
1.11024
0.282319
0.197949
0.611555
0.990024
0.647087
1.35432
0.41339
0.875565
1.27697
0.311801
0.997376
0.00522854
0.00544484
0.00562763
0.00547045
0.0055834
0.005034
0.00501167
0.00520146
0.00556132
0.00511508
0.00532721
0.00518018
0.00505552
0.685781
0.729648
0.878946
1.12015
0.978241
1.19275
0.699256
0.912483
1.43436
0.526471
0.73024
0.856453
1.35358
2.81543
0.951476
0.58008
0.827793
0.9213
0.633584
1.34979
0.106578
0.247482
0.189515
0.140558
0.0923185
0.568029
0.713728
0.737646
0.470926
0.518198
0.888753
1.52457
1.48016
1.49143
1.19576
1.19915
1.56017
1.72079
1.06748
1.02995
1.78273
1.1464
1.89066
1.85721
1.67999
0.910509
0.942608
1.29077
0.885022
0.95302
1.82591
0.8858
0.834367
0.946843
0.232498
0.223629
1.24829
0.654345
0.870575
0.764637
1.13452
0.403558
0.43627
0.464738
0.473387
1.03234
1.20519
0.901455
1.22413
0.953323
0.727426
0.875896
1.14077
1.58416
1.08358
1.23784
0.693461
1.11764
0.715674
0.774856
0.404291
0.211984
0.322786
0.0401395
0.114501
0.138125
0.419297
0.349316
0.959773
1.66185
1.16485
2.16662
1.501
1.45944
1.68534
1.40502
0.882438
0.922681
0.935395
0.838472
1.01629
0.889406
1.18618
0.851439
1.05693
1.02153
0.972577
0.917882
0.766978
0.84249
0.683661
0.273625
0.309543
0.492315
0.406372
0.467065
0.727178
0.959107
1.06471
1.31285
1.107
0.923748
0.935968
1.14108
0.959959
0.492947
1.06673
0.473796
0.480054
0.466841
0.459665
0.438692
0.536205
0.64931
0.538505
0.698781
0.571787
0.69145
0.893003
1.12874
1.05462
0.911835
0.631443
0.959204
0.621943
0.486943
0.471727
0.387196
0.212985
0.515112
0.448695
0.465929
1.00593
1.12011
0.609975
0.573628
1.12711
1.30311
0.54621
0.568665
1.19878
1.12621
1.90143
1.1067
1.09049
1.72629
0.785263
0.729952
0.797767
0.435674
0.81544
0.905842
1.04434
0.919949
0.841608
0.457236
0.672245
0.583414
1.09759
1.20673
1.30249
2.25975
0.877419
0.750624
1.39039
1.49058
1.46489
1.41929
0.36685
0.353489
0.433068
0.454276
0.684116
0.557531
1.11114
0.586636
0.631684
0.886541
1.53449
1.09348
0.991265
0.924319
1.00763
0.882852
0.769342
0.674461
0.889306
0.831213
1.25745
1.20612
0.88415
1.09139
0.346428
0.309196
0.787863
0.00402797
0.00418076
0.00375031
0.00374953
0.00426533
0.00447818
0.00397176
0.00425984
0.00416689
0.00530375
0.00378323
0.00371306
0.00367305
0.00367575
0.00377178
0.00382329
0.00367185
0.00370005
0.0039139
0.00393604
0.00380595
0.00357287
0.00353756
0.00351859
0.00390361
0.00383869
0.00373415
0.00353575
0.0034786
0.00368466
0.00373387
0.00387008
0.00390732
0.00369042
0.00370926
0.0038205
0.00378437
0.00374518
0.00378577
0.00388323
0.00387991
0.00373451
0.00380492
0.00375904
0.00376407
0.00372372
0.00378442
0.00387588
0.00401174
0.00374728
0.00386715
0.00387544
0.00380658
0.194097
0.0708556
0.0744406
0.0679316
0.0718382
0.160451
0.064431
0.078634
0.05303
0.188012
0.0526812
0.0531765
0.0567776
0.0610869
0.0458358
0.162358
1.45769
0.943527
0.876551
0.932424
0.402459
0.4166
0.787577
0.762959
0.410153
0.39903
1.78261
1.45779
1.54469
0.957719
0.437388
0.0820255
0.0127413
0.0184192
0.0776736
0.075901
0.0474525
0.017993
0.0173705
0.0173495
0.0219505
0.0135725
0.0446833
0.0742788
0.071799
0.0810838
0.249607
0.09089
0.0561071
0.0551734
0.00400001
0.0040579
0.00406836
0.00399757
0.00392622
0.00413383
0.00413835
0.00379067
0.00393356
0.00409221
0.00411128
0.00439465
0.00414708
0.00397382
0.00396992
0.00400613
0.00491413
0.00469677
0.00497614
0.0047255
0.00453372
0.00502709
0.00542611
0.00511472
0.00496204
0.00511451
0.00505464
0.00487887
0.00511757
0.00487459
0.00496951
0.00539081
0.00541404
0.00445681
0.00476085
0.00455115
0.00475319
0.00467923
0.00456492
0.00354223
0.00707894
0.00428975
0.00451991
0.00401949
0.00449191
0.00429407
0.00443813
0.0042463
0.00427333
0.00358387
0.396564
0.326935
0.361902
0.431789
0.300856
0.449076
0.467431
0.525995
0.331019
0.337578
0.345119
0.447257
0.606026
0.414056
0.527025
0.32278
0.499207
0.534877
0.0474525
0.0537367
0.0648572
0.0834374
0.0303267
0.0992896
0.0520031
0.0568269
0.0607429
0.119251
0.0673882
0.0654108
0.0647252
0.033216
0.102114
0.0946233
0.135008
0.0800122
0.14193
0.139697
0.145494
0.100353
0.0886067
0.146188
0.147929
0.146917
0.100452
0.0657388
0.0680408
0.128604
0.0821785
0.117064
0.00391661
0.00393278
0.00395997
0.0043946
0.00466419
0.00393244
0.00384809
0.00431448
0.00419043
0.00422382
0.00363858
0.00459443
0.242019
0.1489
0.343017
0.117802
0.309256
0.225155
0.248581
0.257064
0.303893
0.0707551
0.0468889
0.0556228
0.0531101
0.0463435
0.0545966
0.055725
0.0143111
0.0489025
0.0114662
0.041245
0.111641
0.0970799
0.157925
0.0748117
0.0712741
0.0438543
0.0301446
0.0179871
0.117582
0.030775
0.0404219
0.0481426
0.0058093
0.00432731
0.0410834
0.00861567
0.00169203
0.0570548
0.0429765
0.0133712
0.00251666
0.00272232
0.000570967
0.00205378
0.00314707
0.0027558
0.0017947
0.0567145
0.0510872
0.0512592
0.0161563
0.131472
0.104809
0.0694402
0.184048
0.0996495
0.147117
0.115311
0.0609615
0.0991002
0.0561748
0.162852
0.132544
0.110897
0.112859
0.306753
0.314514
0.269347
0.288557
0.278465
0.27983
0.204188
0.233994
0.299069
0.188809
0.197252
0.30876
0.222407
0.191992
0.215591
0.190619
0.193798
0.208471
0.200437
0.429643
0.486938
0.0233658
0.087109
0.329689
0.170365
0.0364744
0.0713644
0.560576
0.370121
1.08386
1.10392
1.06814
1.08712
1.13081
1.19901
1.11611
1.17236
1.00726
0.995042
1.12774
1.30431
1.29901
1.23866
1.27854
1.24471
1.16546
1.0367
1.12199
1.07919
1.09133
0.0374599
0.0280941
0.0893186
0.0646392
0.0726492
0.0320256
0.0552812
0.0558016
0.0548851
0.166575
0.214672
0.275474
0.0279195
0.211988
0.38439
0.163103
0.272695
0.0280922
0.0831114
0.205048
0.423002
0.0947665
0.129523
0.379335
0.314821
0.131467
0.408133
0.177552
1.09841
1.11615
1.08578
1.40888
1.1274
1.45779
1.57041
1.45421
1.23832
1.20875
1.55794
1.40753
1.42308
0.0534415
0.0644783
0.0177239
0.0223206
0.0193855
0.0174985
0.0300155
0.0372398
0.115846
0.0413545
0.07085
0.0786096
0.0206482
0.0214394
0.0772942
0.0391912
0.0738498
0.0712855
0.0523688
0.0971957
0.117372
0.0437099
0.0702301
0.0233437
0.107448
0.0316497
0.0244859
0.125144
0.11942
0.0188028
0.0777882
0.094875
0.0726658
0.0674681
0.124384
0.0290388
0.0525974
0.178584
0.101438
0.0413485
0.00573781
0.0132788
0.116323
0.214683
0.0884392
0.089608
0.133571
0.187384
0.0839005
0.0978625
0.1031
0.0602842
0.0595305
0.116135
0.1293
0.182488
0.0648066
0.0662968
0.0900693
0.185224
0.103044
0.0810036
0.113592
0.0848072
0.281396
0.285301
0.0313683
0.0523955
0.0663526
0.0877661
0.0456857
0.0525175
0.0877221
0.25263
0.362698
0.273455
0.0713702
0.0948808
0.052308
0.198394
0.134543
0.0440338
0.0441765
0.0275391
0.0307578
0.034231
0.0267281
0.0214441
0.031047
0.0291232
0.0402675
0.0422286
0.0205017
0.0415377
0.0420585
0.00382878
0.00375839
0.00390842
0.00394189
0.00395021
0.00385656
0.00402802
0.00391063
0.00422332
0.00433615
0.129711
0.0879167
0.140044
0.189131
0.0586135
0.0515178
0.176417
0.257938
0.0719562
0.151664
0.145042
0.146723
0.180647
0.0498596
0.172673
0.144356
0.0321088
0.631138
0.688336
0.648797
1.08018
0.980373
0.779243
0.999461
0.928378
0.961925
1.0331
0.596783
0.595103
0.738881
0.661078
0.889812
0.92936
0.892966
0.624158
0.674547
0.700492
0.00248663
0.00369569
0.00368411
0.00225963
0.00480342
0.0281418
0.0325004
0.00542026
0.00378685
0.00339709
0.0308379
0.0385995
0.00205579
0.0175375
0.0236866
0.0450255
1.82706
2.01626
2.40739
2.37262
1.71531
2.13334
1.65166
2.15213
2.84244
2.53249
1.80968
1.78598
2.12473
0.0738043
0.108677
0.0879928
0.0574267
0.0523757
0.0589307
0.0990508
0.0827459
0.0647664
0.061467
0.0408086
0.0648285
0.0417514
0.117071
0.0946107
0.0546169
0.121505
0.109588
0.0490268
0.0443346
0.0432141
0.0532386
0.0015015
6.18967e-05
0.00257945
0.00160896
0.00156295
0.0257421
0.105039
0.00387342
0.0370126
0.212198
0.229051
0.122907
0.114081
0.139652
0.0366615
0.115665
0.159376
0.121465
0.0441323
0.0433479
0.110655
0.0229609
0.0580647
0.0487988
0.0408409
0.0417512
0.0609063
0.0380551
1.01119
1.02578
1.0623
1.02825
1.01576
0.993202
1.00435
0.983705
1.06558
1.02118
1.05548
1.05016
1.08283
1.08332
1.0807
1.05817
0.0717256
0.165782
0.135107
0.0755752
0.0109752
0.0191468
0.0266769
0.0117418
0.0107963
0.0101742
0.0872145
0.0589011
0.0188777
0.000937961
0.0308551
0.0229068
1.19036
1.66436
1.16501
1.50477
1.33827
1.91614
0.486705
0.604072
0.458384
0.488625
0.503226
0.706931
1.39824
1.83629
1.26111
0.807422
1.01576
1.02414
0.72486
1.68186
0.0133634
0.00923467
0.00739331
0.00651389
0.00763531
0.00592213
0.00657372
0.00670896
0.00664231
0.0136618
0.016593
0.00890137
0.00872292
0.00588739
0.0154844
0.0640079
0.0747961
0.12584
0.171506
0.239069
0.239116
0.306848
0.122283
0.41943
0.55549
0.484464
0.236565
0.631987
0.648389
0.0244334
0.043925
0.0184592
0.0221613
0.0192852
0.0309466
0.0129052
0.00676327
0.0323095
0.00758155
0.0165537
0.0069138
0.0108221
0.00671772
0.00544882
0.00575905
0.0743074
0.0805945
0.0634412
0.0639388
0.223189
0.230393
0.0418105
0.120844
0.116395
0.0515948
0.220426
0.175378
0.266533
0.165448
0.176931
0.23863
0.244611
0.284185
0.285781
0.0116199
0.0486011
0.0207688
0.0244371
0.0130282
0.115654
0.0317135
0.0525892
0.0672702
0.047617
0.0124391
0.0153599
0.0191376
0.014993
0.0736164
0.0578905
0.0471654
0.108725
0.0751018
0.0912111
0.0391269
0.0579537
0.115207
0.0719698
0.0630729
0.0160175
0.0118969
0.010547
0.0783248
0.00447603
0.0064912
0.0255193
0.0230194
0.0125598
0.0109863
0.0261492
0.0290177
0.0130577
0.0250178
0.00908706
0.00730995
0.00730775
0.00810276
0.0309395
0.00855585
0.0231013
0.0207351
0.0165271
0.0311543
0.0243751
0.0250255
0.0615182
0.0230403
0.0652943
0.0719022
0.0559514
0.0395179
0.529797
1.15064
1.67572
0.888604
1.29569
0.648882
0.801569
1.21961
1.41267
0.476135
0.949008
1.11687
1.62096
0.639316
1.10385
0.307425
0.816235
0.458516
0.411432
0.741767
0.879264
0.674688
0.401737
0.361957
0.355999
1.24425
1.25915
1.25586
1.40596
0.351413
0.362979
0.347518
0.316881
0.342705
0.635721
0.655551
0.57306
0.0436374
0.0871066
0.0249976
0.0442955
0.027693
0.0198555
0.0122646
0.030147
0.0179564
0.0166473
0.0157183
0.0143682
0.0149949
0.0165442
0.0164284
0.0126357
1.12803
1.18318
1.09761
1.13867
0.602426
0.750131
1.18301
0.710028
0.685354
0.865607
0.804561
0.927
0.207251
1.19766
1.37157
0.987204
1.15034
0.296765
0.0725836
0.944753
0.0672511
0.981744
1.26826
0.399517
0.763804
0.29481
1.13274
1.45621
1.06998
0.125754
0.349442
0.44142
1.60823
0.360689
0.739127
0.824529
1.35623
0.382854
0.57752
0.56645
1.08186
0.317471
0.481125
1.54765
0.359545
0.721862
0.391191
0.942794
1.40441
0.755729
0.44742
1.11237
1.22843
0.369973
0.228316
0.878374
0.229968
0.837723
1.39122
0.829911
0.217733
0.26145
1.2816
0.843893
0.26735
0.23755
0.329619
0.254095
0.108942
0.171432
0.136269
0.267944
0.281739
0.0718583
0.0863139
0.091095
0.21689
0.327071
0.137491
0.168754
0.0873011
0.224643
0.242361
0.0837957
0.078922
0.0446071
0.037601
0.0414189
0.0470908
0.121281
0.0688897
0.0448339
0.0672721
0.0488636
0.415004
0.708412
0.282136
0.0108638
0.0104613
0.0100537
0.0103646
0.0111658
0.00933783
0.0335497
0.0391842
0.0612266
0.0314007
0.00160754
0.0128882
0.0141629
0.00849258
0.0274799
0.0265559
0.0783428
0.0303979
0.00657781
0.00738573
0.780003
0.78342
0.732594
0.64174
0.95411
0.935781
0.951144
0.774849
0.576904
0.704361
0.742284
0.750262
0.711039
0.726963
0.629881
0.706738
0.594513
0.575844
0.579915
0.0270647
0.0136481
0.0205628
0.0150108
0.54055
0.890826
0.22797
0.372567
0.0593071
0.0159517
0.37803
0.0751029
0.0293151
0.191799
0.625239
0.24834
0.136338
0.316214
0.13355
0.33265
0.124431
0.112939
0.208788
0.127373
0.205974
0.809329
1.02424
0.516766
0.52953
0.40273
0.300054
0.20894
0.34109
0.278181
0.617158
0.275106
0.172324
0.178487
0.268146
1.93124
1.9289
2.08123
2.21691
2.14683
2.24943
1.63717
1.69325
1.58673
1.419
1.47115
1.95561
1.9228
1.56911
2.13534
2.35056
0.0235299
0.0222427
0.0247527
0.0299167
0.030388
0.0269079
0.0503697
0.0418813
0.0448308
0.0276912
0.0314438
0.0300564
0.045484
0.0351457
0.0358006
0.0345141
0.0417242
0.0391458
0.0394249
0.0304048
0.729862
1.00784
0.602418
1.01386
0.461967
0.525119
0.186349
0.327024
1.12209
0.657137
1.13519
0.942055
0.243582
0.233971
1.15228
0.842213
1.12918
0.735989
1.42033
0.484594
0.0219346
0.0445843
0.0551437
0.0549545
0.0372837
0.0281722
0.02502
0.0391217
0.0490283
0.0417585
0.0426113
0.0380394
0.0658482
0.031644
0.0840507
0.076571
0.0784809
0.513796
1.09576
0.998322
1.89234
0.562194
0.635571
0.81336
0.875043
2.8781
0.831642
0.508228
1.59838
0.0119942
0.0104982
0.00903219
0.00412191
0.0114663
0.00834783
0.00770183
0.00524226
0.0049894
0.0136215
0.00885
0.00473339
0.0570453
0.000276175
0.0196477
0.00104379
0.0309821
0.0974837
0.00110932
0.0564154
0.0807358
0.164529
0.148286
0.00693895
0.0112635
0.247434
0.176052
0.263158
0.0097006
0.0212675
0.0349848
0.00780874
0.0171177
0.0201042
0.00775773
0.0709466
0.0208183
0.0303931
0.00984008
0.0512088
0.147857
0.0432229
0.0672891
0.0958553
0.360007
0.0151725
0.0135219
0.263901
0.474949
0.0359744
0.0276892
0.0967854
0.242203
0.0655329
0.243545
0.247459
0.200743
0.106149
0.142155
0.216297
0.155058
0.152839
0.0813796
0.0234843
0.125342
0.0682161
0.0634136
0.0216457
0.0139052
0.0219646
0.0268337
0.0492279
0.00197387
0.00383949
0.000475832
0.00283752
0.0684743
0.0677371
0.00853745
0.00104712
0.00486641
0.0352667
0.0711649
0.0702475
0.0120979
0.00307059
0.00523776
0.134094
0.0767055
0.511997
0.359299
0.12491
0.485826
0.328683
0.219836
0.10503
0.00977589
0.00160123
0.0160449
0.0535353
0.00501717
0.020968
0.0213591
0.00741016
0.0269077
0.0188757
0.0204813
0.0246596
0.0248884
0.0106157
0.0110169
0.0227723
0.0274557
0.0257707
0.0207335
0.0176621
0.0261282
0.0200767
0.112167
0.0702024
0.064498
0.161778
0.0662552
0.546284
1.07864
0.0920827
0.247904
0.308041
0.215378
0.338717
0.300382
0.124262
0.823951
0.968703
1.25584
1.19294
0.498907
0.387945
0.229526
0.0674485
0.0845636
0.381615
0.347289
0.154382
0.14832
0.145107
0.0821
0.100922
0.157017
0.0959075
0.0821686
0.123502
0.071967
0.047031
0.127957
0.194114
0.124909
0.122636
0.352705
0.371195
0.371393
0.365265
0.369578
0.362081
0.366572
0.372351
0.386029
0.364758
0.366948
0.372818
0.416445
0.361143
0.370077
0.365631
0.492061
0.379053
0.421022
0.526339
0.498577
0.421665
0.949361
0.75902
0.583744
0.812426
1.20883
0.740206
0.441997
0.831405
0.446232
0.777488
0.811034
1.54641
1.62293
0.888107
1.46777
1.7288
1.10229
1.56332
1.08266
0.732478
0.500781
0.360244
1.41509
1.00222
1.02604
0.197813
0.337964
1.21548
0.272056
1.00506
0.88765
0.251701
0.226643
0.192409
0.804777
0.981222
0.99373
0.975647
0.910291
0.989938
0.991239
0.915973
1.00377
0.959978
0.952493
0.983471
0.912856
0.856938
0.874808
0.829324
1.02293
0.974376
0.978215
0.875635
0.926027
0.972518
0.902017
0.633797
0.209386
0.235777
0.265703
0.731386
0.543874
0.954069
0.647711
0.559333
0.213246
0.431987
0.752928
0.541214
1.1434
1.07016
0.433136
0.463536
0.507917
1.46708
0.904918
0.954049
0.648996
0.4019
0.977092
1.08486
0.464426
0.345592
0.256639
0.950681
0.812944
1.03872
1.32796
0.604558
0.895237
0.899204
0.263368
0.6523
0.704423
0.28266
0.278383
0.987427
0.787532
0.808659
1.1407
0.822097
0.852958
0.300546
0.277348
0.657287
0.30175
0.653128
0.704495
0.711569
0.712282
0.714234
0.595202
0.607723
0.600604
0.622709
0.588804
0.438144
0.417714
0.60491
0.467816
0.413476
0.528456
0.538111
0.0737432
0.0848018
0.087936
0.0871204
0.0861644
0.0974496
0.0814965
0.0974246
0.0752583
0.0727341
0.0755214
0.0985314
0.0776513
0.0920029
0.0832535
0.0899695
0.0818454
0.0805986
0.083361
0.112887
0.0964346
0.084576
0.085253
0.065111
0.0562214
0.0586004
0.0387661
0.0156727
0.011266
0.0402395
0.0421867
0.00952815
0.00595548
0.0255483
0.0244365
0.00424524
0.0210421
0.0122304
0.0173758
0.0181683
1.45385
1.33541
1.40306
1.66238
1.19263
1.64978
1.98472
1.23261
1.48554
1.52731
1.15028
1.15462
1.29471
1.14366
2.89795
1.36921
1.77712
0.12294
0.0208981
0.136437
0.677025
0.544542
0.0270445
0.0898654
0.0807814
0.0114774
0.262211
0.430004
0.707336
0.209198
0.201705
0.482347
0.707659
0.115597
0.114923
0.133185
0.129352
0.170217
0.193318
0.152775
0.956848
0.769287
0.171784
0.132398
0.284447
0.482474
0.779609
0.519343
0.611273
0.627914
0.776488
1.25015
1.65982
1.05221
1.51848
0.320723
0.637313
0.288935
0.0390555
0.0339622
0.0402739
0.0330734
0.0165053
0.0357585
0.0298751
0.0270623
0.0351371
0.0413225
0.0341144
0.0323651
0.0272661
0.0328754
0.124095
0.160618
0.109305
0.109719
0.24346
0.0919695
0.107976
0.211706
0.347559
0.253173
0.412952
0.156343
0.164438
0.254528
0.0854532
0.6975
0.795689
0.696884
0.934476
1.16781
1.06573
1.31759
1.57867
0.817157
0.737845
1.34548
1.44223
1.21155
1.55137
1.33621
1.368
1.43939
1.43621
0.0294511
0.0410711
0.0249031
0.0242712
0.027314
0.0239137
0.0282343
0.022239
0.0220762
0.0174721
0.934582
0.921754
0.669694
1.13246
0.235849
0.195655
0.145114
0.292987
0.532481
0.653274
0.908788
0.936799
0.772544
0.176197
0.195018
0.0682373
0.59624
0.824457
0.180891
0.18786
0.158461
0.18877
0.383083
0.341606
0.317818
0.300364
0.409111
0.63322
0.280017
0.383715
0.404479
0.618611
0.512794
0.665425
0.332203
0.376555
0.401193
0.319597
0.308102
0.420614
0.00696325
0.00685475
0.00651493
0.00698915
0.00662958
0.00633128
0.00669956
0.00656594
0.0061455
0.00645122
0.00627213
0.00653364
0.00675556
0.00654497
0.00628594
0.00601688
0.00612485
0.00591767
0.00627043
0.96728
1.04759
0.74959
0.895889
0.742123
0.741431
0.827916
0.654644
0.719386
0.660632
0.943169
1.02491
1.02167
0.900632
0.760848
0.733049
0.862409
0.938016
0.0277354
0.0289371
0.0242726
0.0220803
0.0370012
0.0310573
0.0358736
0.0302543
0.0280234
0.047198
0.0354743
0.0368784
0.0370076
0.0444467
0.0597933
0.0571489
0.00401693
0.00412038
0.00410975
0.00403547
0.00406918
0.00400755
0.00399422
0.00395186
0.00397681
0.00396942
0.00397821
0.00393103
0.00398795
0.00460186
0.00456534
0.00468378
0.00467114
0.00459682
0.00446924
0.00496056
0.00471916
0.00508157
0.00475806
0.00487707
0.00486486
0.00479912
0.00494675
0.00463654
0.00431169
0.00481128
0.00406623
0.00448354
0.00439367
0.00272369
0.00405659
0.00425885
0.00444518
0.00430918
0.00462763
0.00374352
0.00426863
0.00424364
0.00463112
0.00445891
0.00883125
0.00882374
0.00861055
0.008009
0.00813951
0.00846676
0.0078792
0.007916
0.00823228
0.00831394
0.00998268
0.0098267
0.00840177
0.0080212
0.00826772
0.00832135
0.00976601
0.00867492
0.00888294
0.00869457
0.70232
0.691826
0.62042
0.390936
0.541945
0.463442
0.697202
0.55285
0.636185
0.30404
0.336088
0.611851
0.479604
0.576463
0.667604
1.0293
0.704741
0.799635
0.864956
0.930626
1.09965
0.835583
0.911096
0.947352
1.03313
1.10854
1.27828
1.04014
0.474052
0.435347
0.501683
1.03179
1.05287
0.011671
0.0108922
0.0109277
0.00960754
0.0124179
0.0110858
0.0096319
0.00950167
0.0102602
0.010918
0.00879806
0.00871496
0.00858015
0.00923206
0.0097505
0.209653
0.141641
0.12921
0.121846
0.252145
0.152646
0.19238
0.238601
0.285407
0.0080964
0.00851174
0.00749454
0.00751605
0.00817897
0.00736877
0.00728105
0.00771956
0.00703626
0.00680043
0.00684706
0.00668576
0.00703182
0.00786768
0.0073541
0.00686104
0.00691855
0.00715504
0.00782168
0.00819039
0.00697629
0.00717421
0.00274449
0.00396682
0.00254018
0.00287186
0.00393236
0.00739597
0.00327405
0.00246069
0.00189354
0.00261606
0.00210343
0.00279173
0.0031757
0.00164555
0.00240502
0.00268362
0.00296045
0.00629172
0.00318266
0.00655614
0.00409695
0.00400855
0.0038238
0.00422358
0.00479375
0.00412278
0.00436732
0.0046197
0.0042695
0.00401531
0.00385667
0.00372339
0.00376457
0.00426994
0.00417962
0.00457004
0.00442744
0.00437606
0.00408714
0.00429032
0.00405596
0.00457525
0.00376404
0.00404271
0.0042809
0.00370632
0.0368312
0.0582278
0.0627332
0.0485138
0.0153379
0.0591799
0.00421075
0.00249826
0.0594915
0.0283481
0.0837387
0.0406056
0.0345706
0.003585
0.00561042
0.0304532
0.00687613
0.0110158
0.0035951
0.00529977
0.00619229
0.00827327
0.0074658
0.0330584
0.00512155
0.015527
0.00583037
0.00591793
0.00544298
0.00629479
0.00783685
0.00566519
0.00648014
0.016307
0.00873182
0.0105872
0.0146536
0.00736918
0.00975698
0.00941848
0.0092158
0.00718701
0.00728612
0.00742507
0.00374273
0.00377792
0.00441619
0.00373887
0.00367468
0.00465125
0.00401451
0.00369763
0.00364418
0.00380335
0.00466241
0.00369604
0.00349096
0.00547873
0.00600028
0.00559872
0.00508062
0.005595
0.00597569
0.00641819
0.00578154
0.00555083
0.00557949
0.00550143
0.00601301
0.00569554
0.208405
0.1176
0.16692
0.203431
0.171926
0.124681
0.158897
0.16786
0.168195
0.222798
0.229223
0.205705
0.21893
0.0315123
0.012177
0.0140923
0.0149383
0.0134032
0.0305438
0.00619242
0.0427833
0.0130041
0.0120293
0.0172669
0.0114336
0.00617928
0.00814112
0.014981
0.0177865
0.014484
0.0263564
0.0317188
0.0519169
0.0123923
0.0100995
0.0454329
0.0407932
0.0892118
0.0330127
0.0443736
0.048505
0.0144264
0.0414823
0.0150771
0.0170681
0.021562
0.01327
0.019903
0.0146326
0.0299654
0.0161688
0.010002
0.0110199
0.0266033
0.014199
0.0117503
0.0143857
0.0185333
1.10062
1.09339
1.07775
0.946372
1.17496
1.11268
1.34779
1.36412
1.30441
1.35779
1.46404
0.00397868
0.0038585
0.00411915
0.00428506
0.0044203
0.00406071
0.00426482
0.00411405
0.00429659
0.00430701
0.00407434
0.00409595
0.00417743
0.00173875
0.00888928
0.00524136
0.0459702
0.0020591
0.00641294
0.00160495
0.00245631
0.00687307
0.00756633
0.00435421
0.00540805
0.00649407
0.00504583
0.00863148
0.00412601
0.00523774
0.00547254
0.00753404
0.00470692
0.00433135
0.00445
0.00356986
0.00381941
0.00306051
0.00204852
0.00460809
0.00337245
0.00346866
0.00462585
0.00351548
0.00377102
0.00397871
0.00379771
0.00386149
0.00344085
0.00330273
0.00378957
0.00384018
0.00397578
0.00393039
0.00424889
0.00419122
0.00403033
0.00391483
0.00394922
0.004009
0.00401537
0.00396045
0.00450048
0.00411016
0.00411169
0.0158827
0.0146066
0.0185486
0.0129952
0.0132511
0.0171457
0.0186985
0.0151666
0.0173657
0.0161048
0.0132967
0.0174578
0.0142769
0.000440825
0.00441391
0.00417993
0.00210968
0.00328397
0.003507
0.00334546
0.00393919
0.00373869
0.00355919
0.00354602
0.00273989
0.000546496
0.00347591
0.00391631
0.00291773
0.00466656
0.0026594
0.00714675
0.00845374
0.0024664
0.00627028
0.00966429
0.00709676
0.00730903
0.0175306
0.0139043
0.0115627
0.0177219
0.0232598
0.0171369
0.0226691
0.0291879
0.0159802
0.0172754
0.0205716
0.0236219
0.01792
0.0224468
0.478461
1.37013
0.328608
0.564348
0.461749
1.06059
0.183332
0.166929
1.08215
0.166027
0.679921
1.55656
0.777238
0.639223
0.764259
0.513721
0.129457
0.422408
0.785594
0.208245
1.04435
0.697583
0.303607
0.129383
0.391235
0.949799
0.97651
0.00771163
0.0215385
0.0221482
0.00109027
0.00928505
0.575932
0.275195
0.512219
0.0643064
1.06909
0.115637
1.09087
2.33002
1.92674
1.01112
2.09903
2.39775
0.911291
1.7652
0.335193
1.05213
0.959213
0.742673
0.829808
1.0602
0.848852
0.844318
0.982838
0.987656
0.893515
0.461226
0.871059
0.791694
0.478324
0.636309
1.22557
1.2038
0.838184
0.0444531
0.0773696
0.127279
0.116832
0.0711464
0.131585
0.0604874
0.199091
0.0225831
0.0429702
0.363678
0.533565
0.323552
0.427503
0.232719
0.0897304
0.111871
0.143945
0.381825
0.106776
0.340307
0.39293
0.212775
0.18668
0.208507
0.144921
0.177885
0.284478
0.497071
0.418714
0.0846898
0.279795
0.455743
0.287791
0.0557041
0.00522784
0.0160399
0.00072269
0.00322633
0.00175703
0.0356673
0.00204897
0.0227205
0.0324376
0.0383067
0.039438
0.00352102
0.00379281
0.00294559
0.00442151
0.0121325
0.0115105
0.90935
1.22539
1.12719
1.11554
1.35517
0.972319
2.03563
0.230443
1.76758
0.783113
0.297698
0.0896045
0.284999
0.425424
1.11852
0.224984
1.19813
0.806227
0.237219
0.348518
0.0682489
0.27769
0.00269939
0.00297944
0.00174666
0.00191332
0.00282479
0.00277307
0.00283131
0.00266342
0.00279104
0.0030919
0.00266456
0.00270958
0.0025329
0.00255862
0.00258285
0.00231397
0.00259316
0.00278226
0.00269177
0.00253372
0.00828541
0.0254378
0.0784384
0.00428659
0.00156076
0.00300034
0.0842989
0.000705521
0.0183773
0.00359661
0.00372243
0.0257277
0.00355501
0.00367916
0.0250923
1.8093
2.90964
1.96601
3.69077
2.94084
3.55402
3.78501
1.66638
0.0115612
0.00733568
0.0227659
0.0193563
0.0199938
0.0054022
0.00984081
0.00594566
0.0194919
0.0149876
0.00580362
0.0144407
0.0813069
0.118091
0.972861
0.364995
0.0881893
0.160709
0.896284
0.674641
0.880509
0.931067
1.31716
0.681209
1.08674
1.71594
0.522579
0.202313
0.206356
0.285353
0.00232593
0.0051381
0.00599392
0.00739761
0.00681339
0.00224145
0.00296925
0.00552204
0.00498517
0.00634651
0.0092399
0.00437677
0.0037165
0.00675098
0.00361917
0.00824338
0.00988871
0.00477924
0.0429071
0.0437472
0.0663516
0.0687828
0.058348
0.063156
0.0338837
0.04191
0.0497158
0.0770561
0.0678791
0.0453728
0.0971655
0.0467487
0.0675773
0.0698357
0.0638547
0.0417067
0.0406498
0.0670791
0.0694472
0.0374277
0.0145508
0.0131875
0.0150976
0.017736
0.0139149
0.0167925
0.0146713
0.0130786
0.0156653
0.0174734
0.0172522
0.0157968
0.0155466
0.0144157
0.0157443
0.0140282
3.59307
3.24036
2.82086
3.5287
3.0246
2.99399
2.067
1.49665
1.07073
1.06108
1.11097
1.13174
2.38899
1.19666
1.54388
1.28717
1.61484
1.891
0.0633364
0.130951
0.11669
0.0613621
0.0336977
0.0204986
0.05744
0.0696208
0.0883156
0.0700266
0.0370959
0.0292673
0.025299
0.0299118
0.0547859
0.0378951
0.0086656
0.00361917
0.0027897
0.00278111
0.00416945
0.00296421
0.00299314
0.00303942
0.00224747
0.00201463
0.0118576
0.00874174
0.0162192
0.000543397
0.00261509
0.0021736
0.00250974
0.00264311
0.00644748
0.0128098
0.455904
0.447776
0.360837
0.206645
0.0485045
0.21149
0.0113868
0.156775
0.211596
0.334808
0.0555587
0.0460777
0.117898
0.137407
0.0671871
0.0795574
0.106561
0.0645796
0.0495917
0.0582682
0.096363
0.067249
0.018998
0.0513367
0.0215007
0.0261951
0.0185045
0.0411538
0.245331
0.172532
0.103671
0.204912
0.30131
0.0625464
0.0452284
0.186023
0.202288
0.181899
0.0463574
0.0352698
0.107017
0.132126
0.0811284
0.0571992
0.0915381
0.0376618
0.0343913
0.003954
0.0389065
0.0376836
0.0433495
0.0425802
0.0279559
0.0337159
0.0160403
0.0140174
0.0190328
0.0119724
0.0469456
0.0460835
0.0243335
0.0389493
0.0359044
0.0369772
0.0583628
0.0249007
0.0114232
0.081981
0.0690223
0.0285071
0.0310318
0.0487572
0.000779674
0.00195598
0.00706365
0.000680353
0.00233173
0.00206376
0.00118457
0.00213912
0.018382
0.0386991
0.0338348
0.006224
0.00587147
0.0126229
0.00904717
0.0116929
0.00775959
0.00847026
0.00326428
0.00491093
0.000568561
0.00927085
0.00904664
0.00498848
0.00466535
0.00499187
0.00501458
0.00460471
0.00476679
0.00505818
0.00486435
0.00486416
0.00482846
0.00496187
0.00473065
0.00457912
0.00478303
0.0120705
0.0124053
0.0167161
0.0162471
0.0171407
0.0172746
0.0119662
0.0106766
0.0142592
0.0151543
0.0123718
0.0153345
0.0132159
0.013812
0.0435219
0.0483603
0.0501882
0.0572987
0.11882
0.12278
0.126865
0.138896
0.0462639
0.0861901
0.0813142
0.0814328
0.114186
0.0789932
0.0709577
0.380222
0.456924
0.0415613
0.0972724
0.138761
0.388907
0.478393
0.00206975
0.0564456
0.0285312
0.0612708
0.137647
0.0358098
0.0558905
0.0261692
0.00830577
0.0403668
0.686058
0.726604
0.597969
0.52985
0.462732
0.463188
0.590302
0.689932
0.441775
0.427323
0.556237
0.492364
0.531314
0.444374
0.394752
0.482604
0.512634
0.52174
0.580232
0.543025
0.54594
0.52171
0.35716
0.368655
0.492529
0.498901
0.531571
0.81357
0.292458
0.333258
0.329722
0.546619
0.257344
0.254388
0.776357
0.657978
0.582879
0.110739
0.170888
0.0829476
0.0650186
0.220364
0.203169
0.207858
0.149695
0.218365
0.0600642
0.155291
0.068094
0.207412
0.24666
0.152284
0.187628
0.364795
0.36862
0.169489
0.259288
0.366255
0.416802
0.406554
0.324308
0.280551
0.270868
0.276035
0.30405
0.131056
0.182979
0.343683
0.204878
0.193915
0.215639
0.00356398
0.0037374
0.00391755
0.00357986
0.0033427
0.00369387
0.00332971
0.00337446
0.00359469
0.00338228
0.00334714
0.00333623
0.00337621
0.00339488
0.00335875
0.00335174
0.00334903
0.00335364
0.00330918
0.00335992
0.00019459
0.0118923
0.00441216
0.0058238
0.027196
0.0102092
0.0055024
0.0185692
0.00708146
0.00556748
0.00381868
0.0345334
0.00662622
0.00609032
0.00603127
0.00603056
0.0066764
0.00622949
0.00689665
0.00693542
0.00642949
0.00621318
0.00612632
0.00621921
0.00600996
0.00693915
0.00672047
0.042877
0.0530987
0.0470639
0.0479763
0.229238
0.195903
0.161719
0.164031
0.211389
0.0604895
0.0887227
0.0332752
0.0380762
0.137308
0.104996
0.0823018
0.0661881
0.0650837
0.0972148
0.0777349
0.0648731
0.156594
0.145908
0.350478
0.256403
0.146653