/*--------------------------------*- C++ -*----------------------------------*\
  =========                 |
  \\      /  F ield         | OpenFOAM: The Open Source CFD Toolbox
   \\    /   O peration     | Website:  https://openfoam.org
    \\  /    A nd           | Version:  10
     \\/     M anipulation  |
\*---------------------------------------------------------------------------*/
FoamFile
{
    format      ascii;
    class       volScalarField;
    location    "14";
    object      nut;
}
// * * * * * * * * * * * * * * * * * * * * * * * * * * * * * * * * * * * * * //

dimensions      [0 2 -1 0 0 0 0];

internalField   nonuniform List<scalar> 
75457
(
0.0593508
0.0655036
0.053026
0.0217178
0.0578442
0.0250643
0.0626217
0.0204469
0.0292768
0.0290983
0.0280872
0.0435928
0.0579248
0.020247
0.0349103
0.0286525
0.00791169
0.0207391
0.0251395
0.00503192
0.0127652
0.00831905
0.0325258
0.0335571
0.0207982
0.0385025
0.0391129
0.0506343
0.04206
0.0716132
0.0485794
0.0602271
0.0590016
0.0281651
0.0240797
0.0336205
0.0301873
0.0563596
0.054934
0.030044
0.0307273
0.0283086
0.0320049
0.0388111
0.0640661
0.0169422
0.00953283
0.0407769
0.0989007
0.0557724
0.0782925
0.0968792
0.090706
0.0807593
0.0593651
0.0614038
0.125068
0.108184
0.102225
0.0152993
0.091623
0.102775
0.0518054
0.0442945
0.00797037
0.0410803
0.0130192
0.0452423
0.0569012
0.0116136
0.0565277
0.0126901
0.0466691
0.00383229
0.0560828
0.0181012
0.018067
0.172121
0.176592
0.158326
0.128886
0.127711
0.223251
0.249109
0.148958
0.19124
0.191558
0.12921
0.191349
0.125699
0.255469
0.245684
0.148394
0.206429
0.160375
0.0987444
0.0982923
0.101475
0.0141664
0.123069
0.0955496
0.113059
0.0053606
0.000180135
0.00101337
0.0013577
0.00898119
0.00217027
0.0101506
0.0427165
0.0667801
0.00809815
0.00827744
0.0525054
0.0127193
0.0846514
0.0116607
0.0496773
0.0521592
0.0136629
0.00310188
0.0106259
0.01146
0.0289954
0.0579797
0.035711
0.00774627
0.0681678
0.0737932
0.0129158
0.0247146
0.130713
0.0420176
0.0968336
0.155768
0.0567411
0.0512888
0.136297
0.12457
0.00991901
0.0305175
0.0491494
0.0692312
0.0348671
0.0413459
0.109126
0.0828389
0.0637602
0.0680608
0.138313
0.0111179
0.118708
0.05525
0.0477827
0.0677309
0.0751748
0.133443
0.00831703
0.0775077
0.123927
0.00781567
0.0580437
0.122787
0.000864665
0.00086958
0.000861327
0.00087872
0.000872269
0.000868711
0.000865043
0.000855819
0.000883372
0.000849187
0.000866916
0.000869015
0.00086833
0.0789433
0.0920877
0.115846
0.0963028
0.207943
0.00730011
0.180979
0.075247
0.00872543
0.102023
0.191674
0.0891325
0.0757525
0.0173444
0.12041
0.0734225
0.0969004
0.0708432
0.0683285
0.0136731
0.0267169
0.0540168
0.0468223
0.032064
0.0237506
0.0763613
0.0826542
0.00802688
0.0758949
0.0725346
0.0692542
0.129985
0.117346
0.117094
0.107165
0.104815
0.0128411
0.0133266
0.111438
0.0934733
0.01452
0.103755
0.0146329
0.0153784
0.0634957
0.106827
0.0770796
0.00982907
0.0829767
0.0834496
0.0138837
0.0673491
0.106004
0.00719336
0.0460877
0.0448723
0.0633382
0.0784187
0.0913147
0.105695
0.121507
0.0897848
0.0910062
0.0923165
0.0896471
0.113839
0.00935384
0.125299
0.0738645
0.0940378
0.10415
0.119391
0.104367
0.0124114
0.103109
0.00964892
0.069898
0.0105027
0.0902032
0.00725169
0.0644988
0.02607
0.0402683
0.00841803
0.031143
0.0339492
0.0928585
0.0576336
0.0940309
0.017758
0.0962113
0.0158979
0.0159953
0.071337
0.0121846
0.080225
0.145023
0.14689
0.0908493
0.134
0.0951034
0.0775508
0.0110231
0.0834864
0.111361
0.0094314
0.0996226
0.00852618
0.103308
0.00778581
0.100631
0.0655094
0.0744436
0.0902992
0.0807482
0.0856936
0.147686
0.00886984
0.0682765
0.0122687
0.0698528
0.110304
0.110597
0.0105655
0.115792
0.0570252
0.034705
0.157715
0.0973781
0.247741
0.0139981
0.159033
0.210962
0.0197263
0.300367
0.175096
0.133944
0.178568
0.0777666
0.0698246
0.078754
0.0899566
0.0562669
0.029528
0.0481579
0.0848675
0.075787
0.0298337
0.0095138
0.113158
0.0962202
0.0895121
0.123417
0.0860422
0.05532
0.0587165
0.099657
0.00846413
0.0956396
0.0968888
0.136387
0.141053
0.0125288
0.110927
0.129053
0.0114274
0.118505
0.106856
0.0356376
0.0671296
0.0694594
0.113452
0.0340248
0.106743
0.139768
0.0267939
0.103971
0.122722
0.116128
0.147287
0.13035
0.0208242
0.106096
0.137421
0.0184349
0.0139417
0.0198104
0.0133431
0.0850522
0.0874055
0.0816181
0.0913628
0.0924458
0.0880906
0.100832
0.0953344
0.09376
0.102533
0.0133546
0.0866184
0.0868815
0.12179
0.00869367
0.130334
0.101437
0.0874426
0.0219521
0.0272193
0.0688784
0.289432
0.101512
0.123589
0.0701578
0.0709039
0.0943759
0.000890723
0.000914467
0.000848156
0.00084986
0.000929688
0.000970931
0.000880467
0.000932269
0.000906076
0.00114204
0.000836427
0.000837866
0.00081311
0.000819515
0.000847661
0.000838927
0.000826424
0.000837883
0.000897346
0.000902718
0.000857314
0.00081646
0.000793952
0.000801955
0.000868734
0.000857591
0.000856314
0.000799127
0.000789001
0.000826105
0.000839323
0.000909277
0.000904209
0.000850931
0.000848154
0.000885704
0.000869996
0.000853928
0.000853659
0.000911442
0.000901427
0.000876539
0.000894254
0.000869512
0.000861244
0.000858602
0.000856304
0.000892356
0.000918517
0.000863548
0.000884566
0.000895338
0.000873212
0.0519386
0.0249174
0.0260406
0.0238437
0.0252783
0.0452817
0.0224588
0.027553
0.019386
0.0492727
0.0195658
0.0191081
0.0203512
0.0215625
0.0172397
0.0474521
0.0436382
0.038175
0.0524618
0.0244147
0.0312415
0.0322811
0.0593988
0.0258163
0.0315872
0.0298393
0.0422623
0.0353717
0.0543003
0.0298728
0.027174
0.00748564
0.00356645
0.00524021
0.0205759
0.019389
0.012784
0.00495612
0.00487831
0.00493738
0.00609326
0.00373623
0.0121981
0.0192686
0.018759
0.0224968
0.0532363
0.0243732
0.0153783
0.0150954
0.000877942
0.000879586
0.000888394
0.000886703
0.000876765
0.000915459
0.000913903
0.000834137
0.000865868
0.00090429
0.000902168
0.000949602
0.000912496
0.00086672
0.000861654
0.000866297
0.000842623
0.000839108
0.000840959
0.000844798
0.000845255
0.000835794
0.000852887
0.000847183
0.000846133
0.000847095
0.000859487
0.000847243
0.000850798
0.000849171
0.000854956
0.000862917
0.00085375
0.000945127
0.00097775
0.000973586
0.00101008
0.00101105
0.000993226
0.000756212
0.0014726
0.000931252
0.00100367
0.000850176
0.000985145
0.000954885
0.000984138
0.000927262
0.000961252
0.000775152
0.094682
0.0876902
0.0887333
0.0922553
0.0868514
0.106318
0.117637
0.12292
0.0904962
0.0969266
0.0879578
0.092463
0.130927
0.0894931
0.127031
0.0811582
0.103504
0.10803
0.021728
0.0248076
0.0293913
0.0345717
0.0147047
0.0395752
0.0237149
0.0261843
0.0279012
0.0454335
0.0296517
0.0301305
0.0292914
0.0157448
0.0395627
0.0372167
0.0488502
0.0316656
0.0500078
0.0495285
0.0514051
0.0382042
0.0346615
0.0510233
0.051365
0.051616
0.0386348
0.0268068
0.0275288
0.0465882
0.0315497
0.0427896
0.000921081
0.000921019
0.000922205
0.000977298
0.00102617
0.000916567
0.000896131
0.000959771
0.000947161
0.000944999
0.000852123
0.00101418
0.0618708
0.044649
0.0809726
0.0368685
0.0744331
0.0593561
0.0607488
0.0633096
0.074659
0.0242131
0.0167017
0.0190318
0.0167007
0.0146146
0.018603
0.0174783
0.00719719
0.0197175
0.00591441
0.0176651
0.033481
0.0320726
0.0358705
0.0262104
0.0253024
0.0184498
0.0137026
0.00879761
0.0314355
0.014134
0.0175814
0.0190093
0.00159221
0.00119264
0.0112464
0.00233697
0.000444415
0.0154046
0.0117721
0.00370992
0.000700983
0.000740009
0.000153934
0.000557797
0.000851231
0.000731967
0.000476143
0.0154061
0.0140148
0.0137819
0.00449734
0.0527746
0.0424913
0.031499
0.0660505
0.0410216
0.0543384
0.0442238
0.0265122
0.0401996
0.0259536
0.0610969
0.05207
0.045602
0.0461665
0.103486
0.115343
0.09603
0.099571
0.101976
0.0996543
0.0790832
0.0933351
0.1155
0.0785241
0.080541
0.11309
0.0870093
0.0769426
0.084895
0.0817873
0.0811302
0.082711
0.0400805
0.0691834
0.0765235
0.00593977
0.0220995
0.0612148
0.0363593
0.010925
0.0195066
0.0811042
0.0665849
0.20029
0.20128
0.179986
0.125181
0.153929
0.184438
0.194917
0.166375
0.18299
0.172436
0.171398
0.140565
0.140592
0.175594
0.148578
0.157044
0.169775
0.173994
0.16572
0.133034
0.171058
0.0136813
0.010119
0.0296808
0.0225214
0.0252994
0.0119939
0.0197046
0.0196981
0.0194855
0.047638
0.0550125
0.0630454
0.0106418
0.0555281
0.0740613
0.045571
0.0615701
0.0103713
0.0286591
0.0473082
0.0317852
0.0312768
0.0387576
0.0485884
0.0249434
0.0303948
0.0557914
0.0349351
0.231837
0.257823
0.226634
0.195152
0.194075
0.217447
0.214067
0.188982
0.159266
0.190842
0.200217
0.200008
0.182832
0.0256454
0.030113
0.00947475
0.0117449
0.00992385
0.00917682
0.0147858
0.0180992
0.0464743
0.0206433
0.0324908
0.0349766
0.0110642
0.0110587
0.0333461
0.0202788
0.0339778
0.0332879
0.0254265
0.0394294
0.0460842
0.0217315
0.0270458
0.0100563
0.038614
0.0134895
0.0105539
0.0418851
0.0421355
0.00850493
0.0302198
0.0336791
0.027657
0.0259992
0.0423921
0.0130194
0.0218303
0.0568534
0.0378499
0.0179362
0.00275953
0.00630314
0.0414091
0.0596673
0.0378806
0.037074
0.0452794
0.055956
0.035611
0.041867
0.0401265
0.0265113
0.0261522
0.0420487
0.0451941
0.0553638
0.027798
0.0286473
0.0360878
0.0555883
0.0431894
0.03459
0.0438196
0.036901
0.0667753
0.0580498
0.0146739
0.0228776
0.026724
0.0321213
0.0203053
0.0223629
0.0324431
0.0737724
0.0869096
0.0745649
0.0297507
0.0392097
0.0234882
0.0698623
0.054664
0.0159786
0.0161598
0.0109823
0.0119007
0.0133749
0.0108963
0.00904941
0.0122728
0.0115501
0.0154255
0.0164288
0.00861848
0.0157478
0.015651
0.0008618
0.000794167
0.000807379
0.000870033
0.000843204
0.00081426
0.000831021
0.00084899
0.000899323
0.000901753
0.0424666
0.0326822
0.0457337
0.0551262
0.0230834
0.0204701
0.0521569
0.0628436
0.027553
0.0452931
0.0453379
0.0457502
0.0499866
0.0192132
0.0494561
0.0449626
0.0127443
0.109815
0.113578
0.109949
0.172382
0.164444
0.137602
0.160979
0.157119
0.167511
0.181214
0.1021
0.103874
0.122685
0.115619
0.14598
0.166398
0.157288
0.113453
0.1191
0.126825
0.000521475
0.000764895
0.000775712
0.000472867
0.000956355
0.0054613
0.00580226
0.00110246
0.000768794
0.000708391
0.00562852
0.00697918
0.000431861
0.00360484
0.00465177
0.00774004
0.197352
0.256645
0.340675
0.309053
0.144671
0.228331
0.136909
0.184649
0.272543
0.267603
0.152464
0.166801
0.203918
0.0258249
0.0353194
0.0306205
0.0210349
0.0197368
0.0218201
0.0327886
0.028458
0.0237074
0.0222524
0.0162871
0.0232398
0.0108384
0.0275358
0.0237323
0.0140152
0.0290295
0.0267398
0.0130212
0.0118729
0.0116753
0.0141167
0.000395417
1.64332e-05
0.000669709
0.000420735
0.000398976
0.00668698
0.0261065
0.00100498
0.00961959
0.0532476
0.0577929
0.0328335
0.0305318
0.0353373
0.0124219
0.0340715
0.0421886
0.0346234
0.0158416
0.0155329
0.032859
0.00865756
0.0194423
0.016559
0.0149465
0.0153717
0.02062
0.0137133
0.200727
0.141764
0.197356
0.20191
0.190308
0.189166
0.136655
0.219672
0.175848
0.208097
0.209021
0.220138
0.19529
0.183841
0.199426
0.18096
0.0159639
0.0337328
0.0291717
0.017169
0.00249853
0.00427509
0.00604402
0.00267874
0.00244701
0.00225865
0.0190175
0.0131524
0.00414119
0.0002054
0.00642607
0.00493477
0.0222609
0.140321
0.0891629
0.124051
0.0245725
0.130564
0.0842218
0.0632409
0.0770966
0.0771282
0.0821283
0.103219
0.158776
0.169467
0.0928893
0.0957203
0.0983486
0.0978788
0.0849404
0.167526
0.00200194
0.00121013
0.00100657
0.000920683
0.00111665
0.000827805
0.000850247
0.000909569
0.000962523
0.0018679
0.00224699
0.00126127
0.00116416
0.000845214
0.00217061
0.0127699
0.0140231
0.0236715
0.0320589
0.0400895
0.0377603
0.0425799
0.0201026
0.0556118
0.069647
0.0643205
0.0351638
0.0739946
0.0716331
0.00654661
0.0106348
0.00509173
0.00596132
0.00536494
0.00813415
0.00377007
0.00208923
0.0081778
0.00218101
0.00458228
0.00214072
0.0031949
0.00208628
0.00167914
0.00180201
0.0311334
0.0331539
0.0272722
0.0271873
0.0620678
0.0625774
0.0190833
0.0421271
0.0402319
0.0235004
0.0630723
0.0532108
0.0648883
0.0511842
0.0546117
0.0635135
0.0670832
0.0649781
0.0634787
0.00435906
0.0146718
0.00692416
0.00854974
0.0047304
0.0301791
0.010132
0.0156764
0.0187207
0.0139655
0.00478982
0.00583647
0.00661245
0.00560794
0.0206609
0.0173499
0.0170125
0.0351248
0.0261934
0.0306272
0.0148651
0.021126
0.0372967
0.0257454
0.0227099
0.00193949
0.00165519
0.0014647
0.00963776
0.000525729
0.000860296
0.00345762
0.00303889
0.00166529
0.00147079
0.00343511
0.00389767
0.00158902
0.0031329
0.00112556
0.000877893
0.000908953
0.001034
0.00418191
0.00108892
0.00740863
0.0067335
0.00543162
0.0103419
0.00800255
0.00781372
0.0207714
0.00756366
0.020521
0.0235388
0.0185098
0.0130994
0.110526
0.162613
0.0137801
0.164035
0.0691797
0.101474
0.070104
0.00989795
0.0115601
0.0924135
0.0819704
0.0778457
0.0131497
0.0958375
0.0965597
0.0773838
0.0973718
0.086728
0.0879579
0.0912366
0.0920638
0.0898625
0.0869395
0.0920972
0.0924007
0.100364
0.0154441
0.091717
0.0175196
0.0922106
0.0913236
0.0909495
0.0862878
0.0903341
0.11255
0.10423
0.10927
0.0218732
0.0377781
0.0135357
0.0221742
0.014898
0.0110137
0.00694507
0.0162461
0.00989161
0.00914245
0.00825582
0.00780772
0.00819614
0.00906454
0.00895379
0.00692387
0.203235
0.149617
0.162374
0.168731
0.0645729
0.0960498
0.226003
0.111117
0.0800716
0.113673
0.0956224
0.124058
0.0540506
0.102407
0.0169632
0.101323
0.0142271
0.064631
0.0258203
0.0976243
0.0232694
0.115659
0.0759455
0.0837756
0.0936549
0.0721593
0.113974
0.0144423
0.105972
0.0460446
0.0792807
0.0852613
0.0159016
0.0800905
0.111902
0.102468
0.106698
0.0922809
0.0717236
0.152459
0.00998798
0.054229
0.0677439
0.0142332
0.0669906
0.0852306
0.0502984
0.121483
0.0154115
0.134124
0.0677954
0.099089
0.0132159
0.082436
0.0573398
0.100862
0.0592803
0.0949037
0.014964
0.0961408
0.0622744
0.0670519
0.0849781
0.0899172
0.0695067
0.0671493
0.0754439
0.0695327
0.0417101
0.0558242
0.0490844
0.0717454
0.0727221
0.0306565
0.0348785
0.0364396
0.0627673
0.07649
0.0482657
0.0547135
0.0353013
0.066125
0.0683908
0.0192779
0.021457
0.0108885
0.00909866
0.0105768
0.0119122
0.02591
0.0246933
0.0123532
0.0158051
0.0122591
0.0695888
0.0828982
0.053659
0.000913382
0.000903602
0.000915239
0.00096287
0.000909542
0.000879243
0.00329278
0.00363596
0.00551107
0.00284098
0.000129689
0.00099785
0.00138776
0.000813898
0.00254122
0.00236678
0.0071809
0.00245421
0.000566294
0.000683672
0.0393525
0.0585928
0.0536706
0.0444447
0.02795
0.0355807
0.0226528
0.00998175
0.0511145
0.0667609
0.0533324
0.0208861
0.023391
0.011065
0.0328533
0.030944
0.0332709
0.0385574
0.0336205
0.00525281
0.00306147
0.00470408
0.00371547
0.0463143
0.0569371
0.0225115
0.0291412
0.0120999
0.0036037
0.0325134
0.0101164
0.00618497
0.0259044
0.0461218
0.0292935
0.0210855
0.0276123
0.0206872
0.0287737
0.0540708
0.0497175
0.077303
0.05442
0.0771764
0.0892398
0.0884788
0.101879
0.0968746
0.106615
0.0863435
0.0773907
0.0975754
0.085255
0.0963285
0.0871985
0.0664319
0.0764136
0.083842
0.205901
0.246016
0.227307
0.336238
0.157755
0.121994
0.179671
0.196634
0.256862
0.171858
0.157474
0.189762
0.14943
0.210635
0.311051
0.190498
0.000961134
0.000974067
0.00102926
0.00114864
0.000998189
0.000979153
0.00166039
0.000964423
0.00109365
0.00075766
0.000973342
0.000948206
0.00101746
0.00104126
0.0011009
0.00110479
0.00107255
0.00101003
0.000998624
0.00103558
0.0917562
0.105199
0.0770115
0.100343
0.073768
0.0786581
0.0438192
0.0620212
0.0940165
0.0807889
0.010807
0.101421
0.0521691
0.0526195
0.081974
0.0762733
0.0107624
0.0837609
0.0133742
0.0741991
0.00071588
0.00118822
0.00132965
0.000983322
0.000885762
0.000944434
0.00101635
0.000990204
0.0010407
0.000994267
0.000939892
0.00106831
0.00105234
0.000771006
0.00106378
0.000945404
0.00141982
0.155985
0.0907186
0.142817
0.0128556
0.0920251
0.108205
0.0952511
0.112759
0.0192692
0.109656
0.250008
0.0748441
0.000989397
0.000905493
0.000593977
0.000283424
0.000873194
0.000719496
0.000704269
0.000490728
0.000355986
0.000899765
0.000702658
0.000366061
0.00444286
1.94679e-05
0.0016975
8.09569e-05
0.0024177
0.0081174
7.18675e-05
0.00503006
0.0071285
0.0283681
0.0260655
0.00126496
0.00200307
0.0391792
0.0300203
0.0417534
0.00169159
0.00385947
0.00621378
0.00139807
0.0031306
0.00371683
0.00144699
0.0121858
0.00366628
0.00543316
0.0017909
0.0106126
0.0281013
0.00898048
0.0134947
0.0188207
0.0570152
0.00317599
0.00272805
0.0433876
0.0682489
0.00700432
0.00570827
0.0190599
0.0409572
0.0126969
0.0240975
0.0295386
0.0312024
0.0174722
0.0137607
0.0330453
0.0278236
0.0241196
0.0130579
0.00369644
0.0223419
0.0109328
0.0101959
0.00345947
0.00443485
0.00684497
0.00847184
0.0149037
0.000642498
0.0012675
0.000150875
0.000907071
0.0197125
0.0186808
0.00273268
0.000333539
0.00152717
0.0107163
0.0203666
0.0205345
0.00169842
0.000427888
0.000716284
0.0188318
0.0108256
0.0630973
0.0515405
0.0176741
0.0573018
0.0451598
0.0333306
0.016352
0.00137256
0.000203826
0.00208686
0.00741085
0.000691124
0.000960176
0.000971032
0.000441416
0.00148527
0.000961248
0.000933724
0.000978658
0.000975784
0.000569511
0.000557105
0.000890847
0.000911914
0.0010363
0.000778424
0.000743377
0.00103882
0.000832056
0.015418
0.0121095
0.0120157
0.020782
0.0127455
0.0396801
0.0531733
0.0173304
0.0221343
0.0269422
0.0249444
0.0333146
0.0262813
0.0216567
0.120671
0.0953157
0.0270057
0.179786
0.0603138
0.0571232
0.0407332
0.0145468
0.0189247
0.055533
0.0529358
0.0292755
0.0287234
0.0294613
0.0170474
0.0211265
0.031402
0.0206242
0.0182926
0.0254245
0.0156732
0.0101404
0.026327
0.0369114
0.0266671
0.0261924
0.0909778
0.104745
0.114217
0.102836
0.0897908
0.106689
0.110701
0.111438
0.0887245
0.110363
0.106006
0.101939
0.110225
0.108506
0.116328
0.116831
0.0905377
0.0851918
0.0868942
0.0917828
0.104506
0.0981307
0.106215
0.13037
0.0941018
0.13152
0.0143892
0.0906646
0.0884656
0.0920058
0.10298
0.106682
0.0904496
0.111173
0.0196666
0.0877342
0.100179
0.0212375
0.102806
0.0204216
0.096072
0.0929393
0.0854946
0.0789845
0.0180939
0.102678
0.0923462
0.064967
0.0774567
0.1062
0.069616
0.0966656
0.0935896
0.0660295
0.0645466
0.05841
0.0995018
0.175992
0.15553
0.174354
0.11124
0.126167
0.127946
0.0996879
0.142225
0.153562
0.123189
0.1503
0.133351
0.112938
0.127337
0.0240135
0.117724
0.107198
0.114113
0.0207293
0.101453
0.122802
0.110889
0.114057
0.0472878
0.0522179
0.0565528
0.0871998
0.0782228
0.131513
0.0939359
0.0860316
0.0508689
0.0699299
0.0989105
0.0703765
0.0106967
0.00992262
0.0679925
0.0719174
0.0735549
0.0136444
0.107075
0.0784201
0.0867237
0.12113
0.1082
0.0114067
0.0757948
0.0716834
0.0634011
0.0984421
0.0964979
0.0727274
0.0139941
0.0903818
0.0981579
0.0900457
0.0634915
0.106878
0.124713
0.0642766
0.0635211
0.103607
0.091431
0.0805567
0.0112849
0.118655
0.0829967
0.0682014
0.0676473
0.0851064
0.0708544
0.139839
0.124512
0.168137
0.149196
0.119399
0.14544
0.1499
0.123488
0.149492
0.154221
0.109525
0.108503
0.162656
0.130268
0.112256
0.144376
0.14758
0.0375318
0.0423975
0.0435679
0.0436331
0.0434739
0.0460544
0.0418292
0.0501266
0.0378981
0.0371211
0.0389423
0.0469212
0.0391936
0.0448782
0.04255
0.0439417
0.0414573
0.0406039
0.0413486
0.0486327
0.0448021
0.0426438
0.0342125
0.0293824
0.0262224
0.0273987
0.0209943
0.00935512
0.00694938
0.0214411
0.0211084
0.00592392
0.00373258
0.0144397
0.0138334
0.0026635
0.0123206
0.00733182
0.0104171
0.0108131
0.196039
0.156959
0.143812
0.14591
0.143106
0.145545
0.25157
0.177299
0.147364
0.197514
0.157652
0.151278
0.183643
0.173908
0.235811
0.179383
0.216367
0.0311445
0.00602996
0.0344649
0.0883581
0.0859721
0.00779706
0.0239078
0.0215646
0.00347234
0.0566548
0.0832426
0.0979832
0.0629739
0.0624585
0.0909487
0.104768
0.0421367
0.0397837
0.0461986
0.0453602
0.0551349
0.0488933
0.0499409
0.0972966
0.101114
0.048854
0.0412446
0.0586205
0.0854781
0.0941752
0.085539
0.0971107
0.0876754
0.0970245
0.0817909
0.0148898
0.0977264
0.0136755
0.0727384
0.0856154
0.0688644
0.0213253
0.0190634
0.0219487
0.0185229
0.0097138
0.019373
0.016658
0.0153267
0.0183731
0.0207248
0.0182131
0.0176774
0.0153377
0.0178817
0.0390023
0.0503754
0.037786
0.0384707
0.0589143
0.0346919
0.038108
0.0556738
0.0776365
0.0656996
0.0864851
0.0450441
0.0516618
0.0640274
0.0331237
0.082213
0.0973521
0.0361055
0.0446744
0.244109
0.0552156
0.216714
0.277924
0.0775175
0.114274
0.131307
0.24527
0.257565
0.207488
0.179405
0.286858
0.300352
0.230911
0.00144439
0.00169427
0.000972137
0.00119033
0.00128351
0.00111235
0.00119079
0.00113286
0.000940389
0.000894242
0.0933155
0.0119564
0.0872375
0.0146945
0.0548233
0.0500666
0.0413512
0.0609716
0.0741071
0.0744331
0.0866191
0.0933836
0.087852
0.0476715
0.0504126
0.0246026
0.0746039
0.0865107
0.0468401
0.0499498
0.0433668
0.0465309
0.0904953
0.0607723
0.0710667
0.0675054
0.0707394
0.0328774
0.0535722
0.0994934
0.0935156
0.0308357
0.0585734
0.0326414
0.061765
0.099957
0.101549
0.0585609
0.0577782
0.0976266
0.00087082
0.000870803
0.000873416
0.000873503
0.000872794
0.000869235
0.00087355
0.000871048
0.000866696
0.00086572
0.000876312
0.000871036
0.000868326
0.000869281
0.000878361
0.000887159
0.000872452
0.000877638
0.000867402
0.122293
0.113424
0.0815009
0.101609
0.0629361
0.0569018
0.0886702
0.101161
0.062459
0.1038
0.0815631
0.111198
0.109163
0.0640715
0.110952
0.0987001
0.110623
0.0451097
0.000947849
0.000964805
0.000971608
0.000934885
0.000953578
0.000971166
0.000977146
0.000977727
0.000965958
0.00102871
0.000994205
0.00098197
0.000994961
0.00100981
0.00102787
0.00102215
0.000857852
0.00084366
0.00084234
0.000865914
0.000880368
0.000858822
0.000851588
0.000857095
0.000826509
0.000825955
0.000874116
0.000832905
0.000874049
0.00084447
0.000879952
0.000853176
0.000853955
0.000852998
0.000876609
0.000860536
0.000852354
0.000889205
0.000869249
0.000865778
0.000845028
0.000898052
0.000899827
0.000864288
0.000883906
0.000971822
0.00085536
0.000928842
0.000851909
0.000537485
0.000856483
0.000894254
0.00087043
0.000875778
0.000923762
0.000742206
0.000865089
0.000856261
0.000909647
0.000846504
0.000886718
0.000890175
0.000885014
0.000879724
0.000879376
0.000880801
0.000880798
0.000900805
0.000891922
0.000887049
0.000890086
0.000891569
0.000883823
0.000872976
0.000886713
0.000884866
0.000899661
0.000889028
0.000895852
0.0008935
0.0849278
0.0854501
0.080576
0.053528
0.06831
0.0598495
0.0812167
0.0699441
0.0720231
0.0459553
0.047549
0.0706331
0.0650005
0.0707426
0.0770092
0.106638
0.078755
0.0906032
0.0878821
0.0928489
0.105365
0.0893652
0.0934986
0.0882773
0.107934
0.0969109
0.104787
0.0899431
0.0484956
0.0485195
0.0485702
0.0820762
0.0951066
0.000908797
0.000909273
0.000896489
0.000946997
0.000913394
0.000909263
0.000863182
0.000886816
0.000887469
0.000879183
0.000882627
0.000895897
0.000897025
0.000892766
0.000877147
0.063616
0.0462918
0.0427879
0.0407031
0.0733406
0.0451333
0.0576134
0.0686112
0.0808666
0.000882189
0.000889088
0.000883069
0.00088194
0.000893571
0.000881864
0.000880878
0.000887041
0.000886594
0.000874461
0.000870798
0.000854145
0.000868417
0.000886231
0.000881433
0.000868515
0.000844714
0.000854019
0.00089809
0.000886548
0.000885062
0.000833505
0.000731425
0.00104248
0.000678009
0.000764215
0.00104169
0.00188927
0.000859072
0.000674706
0.000498739
0.000706424
0.000554172
0.000761199
0.000833901
0.000453845
0.000661331
0.000731151
0.000798396
0.00170705
0.000859493
0.00177841
0.000822512
0.000840401
0.000784998
0.000902733
0.000955721
0.00086478
0.000901422
0.000934658
0.000875757
0.000839535
0.000801621
0.00080525
0.000801515
0.000900892
0.000889416
0.000926555
0.000915164
0.000883675
0.000882045
0.000889753
0.000865148
0.000929701
0.000808702
0.000896249
0.00093107
0.000802291
0.0129369
0.0191085
0.0204162
0.0167383
0.00575358
0.0216722
0.00169412
0.000961387
0.0196647
0.0110443
0.0271351
0.0145895
0.0127543
0.00147587
0.00226842
0.0112541
0.00275244
0.00440142
0.00144436
0.00211459
0.00245472
0.00321367
0.00290592
0.0121828
0.00204522
0.00602255
0.00180275
0.0018013
0.00161341
0.00187103
0.00248532
0.00177891
0.00202128
0.00444126
0.0021148
0.00288803
0.00406883
0.00228283
0.00297369
0.00285153
0.00273837
0.00215571
0.00209305
0.00226129
0.000885458
0.000877332
0.000985441
0.000878513
0.00088214
0.00105769
0.000908033
0.000894637
0.000878333
0.000894075
0.00107422
0.000890049
0.000853675
0.000848352
0.000859789
0.00085729
0.000816927
0.000855484
0.000861951
0.000861956
0.000850207
0.000821886
0.00086835
0.000835377
0.000859388
0.000858027
0.0587043
0.03856
0.0490688
0.0581882
0.0519833
0.0394709
0.0474698
0.0495991
0.0500772
0.06147
0.0633262
0.0588419
0.0607322
0.0122928
0.00538222
0.00622394
0.00654529
0.00584538
0.012049
0.00257973
0.0168398
0.00567164
0.00524166
0.00728469
0.00479479
0.00270044
0.0035475
0.00638554
0.00767247
0.00642775
0.0114629
0.0131323
0.0213439
0.00538775
0.00435971
0.0180878
0.0163493
0.0322153
0.0139092
0.0180785
0.019277
0.00609954
0.0168304
0.00629753
0.00666726
0.00849512
0.00533211
0.00804331
0.00583459
0.0116828
0.00634492
0.00405216
0.00450649
0.0105331
0.00547119
0.00469242
0.00568105
0.00709793
0.213104
0.20228
0.149995
0.180681
0.217522
0.207878
0.186298
0.267371
0.250955
0.253537
0.271009
0.000837905
0.000828472
0.000837068
0.000838954
0.00083339
0.000836876
0.000836085
0.000832976
0.000833223
0.000832023
0.000836559
0.000838574
0.000833647
0.000312543
0.0015708
0.000492629
0.00556663
0.000207156
0.00119995
0.000272082
0.000451323
0.00123924
0.0013327
0.000946258
0.00107608
0.00124571
0.00103319
0.00145181
0.000916708
0.00107551
0.0011066
0.00139608
0.000975834
0.000849511
0.00092125
0.000732615
0.000774984
0.000651918
0.000441951
0.000986252
0.000694357
0.000678669
0.000921424
0.000673667
0.000781162
0.000785584
0.000842524
0.000844761
0.000795618
0.000757428
0.0008389
0.00082566
0.00085808
0.000840587
0.000854631
0.000842422
0.000864782
0.000854572
0.000836522
0.000830256
0.00084261
0.000847396
0.000931629
0.000852379
0.000862434
0.000927892
0.000924447
0.000939339
0.000914079
0.000913582
0.000933294
0.000942392
0.000925799
0.000935454
0.000930382
0.000917652
0.000935203
0.000913849
0.00010667
0.00104981
0.00106474
0.000525682
0.000807221
0.000906835
0.00087481
0.000985424
0.000929964
0.000907741
0.000917361
0.000650404
0.000133017
0.000904607
0.000964364
0.000724697
0.00103623
0.000654105
0.0015416
0.00190604
0.000613044
0.00259452
0.00398274
0.00294026
0.0029672
0.00714817
0.00572547
0.00461938
0.00706499
0.00954544
0.00723218
0.00897997
0.0114365
0.00673881
0.00712407
0.00863415
0.00970257
0.00723647
0.00907745
0.104672
0.249917
0.0736586
0.117943
0.0952862
0.204283
0.0462763
0.0441798
0.208882
0.0419413
0.147879
0.277332
0.16359
0.139111
0.167262
0.118837
0.0333727
0.0949644
0.162904
0.0536358
0.206404
0.152489
0.0726846
0.0336504
0.0893285
0.189824
0.193621
0.00433374
0.0116558
0.0118835
0.000623425
0.0049651
0.0726765
0.0340495
0.0612953
0.010196
0.10744
0.0190019
0.0971605
0.170737
0.131393
0.0842577
0.0901313
0.178987
0.0810635
0.130221
0.0438321
0.184363
0.174448
0.126253
0.144274
0.232379
0.207997
0.186361
0.187321
0.214725
0.21804
0.125624
0.167598
0.136736
0.127171
0.165696
0.28603
0.27602
0.198485
0.00905157
0.012252
0.0174827
0.00988864
0.00736067
0.0103367
0.0046602
0.0125782
0.00448639
0.00977314
0.0191869
0.0171231
0.0152323
0.0124865
0.0134002
0.0103979
0.0140815
0.00724667
0.0208674
0.0154746
0.0690987
0.0759013
0.0500297
0.0458413
0.0495578
0.0372969
0.044453
0.0627551
0.0882258
0.0795257
0.0235702
0.0641855
0.0884828
0.0643785
0.0107806
0.00130183
0.00329358
0.000152893
0.000869635
0.000464979
0.00769785
0.000590397
0.00496459
0.00644978
0.00712856
0.00769621
0.000995012
0.00110786
0.000825807
0.00122225
0.0029693
0.00284925
0.0968862
0.122233
0.114407
0.120018
0.142669
0.103485
0.177463
0.0252765
0.176909
0.0732333
0.0441956
0.013482
0.0415979
0.054381
0.110434
0.0280862
0.116668
0.0797345
0.0346987
0.0436205
0.0132387
0.0399782
0.000743326
0.00082259
0.000485326
0.000536906
0.00079183
0.000791706
0.000790059
0.000735888
0.000777668
0.000860675
0.000753428
0.000775994
0.00072626
0.000711116
0.000722473
0.000656646
0.000729782
0.000789229
0.000781888
0.00072586
0.00144723
0.00428941
0.0111433
0.000921594
0.000277824
0.000632043
0.0118031
0.000138506
0.00335027
0.000806219
0.000822289
0.00472754
0.000760127
0.000813191
0.00515139
0.208462
0.336793
0.230935
0.400104
0.293485
0.43871
0.398611
0.178896
0.00380677
0.00232594
0.00729252
0.00614723
0.00643323
0.00174138
0.00313287
0.00184158
0.0063574
0.00488929
0.00183075
0.00468242
0.0227337
0.0321568
0.0987711
0.0674605
0.0258859
0.0397387
0.0959565
0.0969833
0.0918986
0.0924811
0.0144634
0.0905801
0.09414
0.0188798
0.0728311
0.0452588
0.0463198
0.0583586
0.000776812
0.00168941
0.00199333
0.00244877
0.00220873
0.000737546
0.000989864
0.00174485
0.00161625
0.00206259
0.00295395
0.0013735
0.00121665
0.00222084
0.00117933
0.00259582
0.00306686
0.00153943
0.0227908
0.0232151
0.0326145
0.0330935
0.0299872
0.0310921
0.0181626
0.0222496
0.0257319
0.0358163
0.0337964
0.0236198
0.0413066
0.0239173
0.0337401
0.0345835
0.0314926
0.0217877
0.0211673
0.0321281
0.0343782
0.0196809
0.000919396
0.000912787
0.000925135
0.000937023
0.000917335
0.000929035
0.000922137
0.000910929
0.000919354
0.000927107
0.000933078
0.000926782
0.000926963
0.000921269
0.000925944
0.000919293
0.502218
0.487561
0.383097
0.455074
0.352679
0.525758
0.27779
0.262549
0.199589
0.192044
0.191857
0.198881
0.42566
0.224339
0.258832
0.210207
0.298125
0.30155
0.0279124
0.0483031
0.0437575
0.0267599
0.0157589
0.0100298
0.0237666
0.0279118
0.0368045
0.0307215
0.0170646
0.0133157
0.0119748
0.0144635
0.0247562
0.0179105
0.00222305
0.00093543
0.000706885
0.000715439
0.00111632
0.000761543
0.000772714
0.000782048
0.000574843
0.000516922
0.00307122
0.0022336
0.00415742
0.000140248
0.000683887
0.000569408
0.000663069
0.000698823
0.00172826
0.00342471
0.0517431
0.0520002
0.0473764
0.0313346
0.00967822
0.0296441
0.00198201
0.0251252
0.0316339
0.0421632
0.0109409
0.00950775
0.0201355
0.022686
0.0126058
0.0141991
0.0271297
0.015897
0.014318
0.0164751
0.0303049
0.0188957
0.00668109
0.0149684
0.00747033
0.0098114
0.00658386
0.015399
0.0683772
0.0568723
0.0408238
0.0628163
0.0757232
0.0291161
0.0217303
0.0535869
0.0627132
0.0610442
0.0228899
0.0180964
0.0398287
0.0420027
0.0355701
0.0262529
0.0343074
0.013332
0.0121354
0.00139114
0.0126938
0.0121104
0.0141535
0.0136188
0.00995981
0.0117087
0.00596197
0.00507224
0.00682039
0.00436053
0.0157727
0.0155052
0.00893382
0.0135721
0.0122005
0.00979733
0.0144023