/*--------------------------------*- C++ -*----------------------------------*\
  =========                 |
  \\      /  F ield         | OpenFOAM: The Open Source CFD Toolbox
   \\    /   O peration     | Website:  https://openfoam.org
    \\  /    A nd           | Version:  10
     \\/     M anipulation  |
\*---------------------------------------------------------------------------*/
FoamFile
{
    format      ascii;
    class       volScalarField;
    location    "14";
    object      omega;
}
// * * * * * * * * * * * * * * * * * * * * * * * * * * * * * * * * * * * * * //

dimensions      [0 0 -1 0 0 0 0];

internalField   nonuniform List<scalar> 
75457
(
32.5765
33.4085
25.1343
20.0264
24.8181
34.0027
27.487
34.6922
16.7567
16.648
15.7445
19.1863
18.5721
16.9627
2.38433
2.36784
2.03238
2.38454
2.3137
2.04715
2.20552
2.23099
2.39617
2.37043
2.288
2.55316
2.5804
2.28553
2.32695
2.54058
2.19631
2.49186
2.49496
2.046
2.00236
2.09147
2.0166
2.54751
2.44148
2.03681
2.07672
2.01347
2.0354
2.7631
3.11462
2.43903
2.33801
2.78093
6.25402
3.55521
5.03301
5.73133
14.1058
4.81693
3.8697
4.07763
8.03424
8.98029
8.10849
15.6217
12.2861
6.72675
8.72866
7.18362
7.06516
7.99534
6.66726
8.28813
8.48718
13.9316
8.19849
14.5492
7.75942
7.73812
8.06315
7.14487
7.59221
13.7731
9.60606
6.89644
16.2396
10.7797
10.5107
7.04506
5.93134
5.73361
6.54308
6.6834
11.5645
14.0898
6.77271
6.03677
11.3884
6.28138
5.69488
3.38354
3.68072
3.91635
24.051
6.85178
8.41133
11.038
22.134
20.0079
39.6191
41.0991
20.8256
18.6963
20.4337
7.23795
5.64251
15.7251
15.6783
13.4187
5.32077
9.84715
22.1314
9.21906
8.61059
24.1845
6.03788
6.75705
6.70111
6.41672
7.66228
7.58429
15.3634
6.45408
11.4725
7.20174
6.85891
6.9253
6.56055
6.0801
3.3344
15.3502
7.04583
5.46133
5.72238
24.7073
4.4109
5.39896
6.65564
4.34133
4.56383
5.98002
7.10538
8.24915
17.9453
5.06729
31.9089
9.35271
5.10986
4.14268
9.02919
13.1696
4.84916
27.5898
5.33354
7.06517
26.8025
5.37182
8.12284
6.04689
6.26146
6.53368
6.22547
6.401
5.79479
5.79355
6.07776
6.29555
6.0235
6.14501
5.96097
5.82212
8.68701
7.92341
7.5872
11.6316
4.70437
22.3351
3.86375
12.1265
28.1797
5.16034
3.80981
9.60876
17.8684
39.4908
7.90195
7.90057
8.54272
13.0048
6.36339
24.6299
3.98915
4.58158
4.04753
4.38368
3.887
7.4387
8.63511
12.8418
6.20498
7.14416
12.8332
11.7288
12.6136
12.7371
11.1581
11.4407
23.6456
26.3858
9.57911
11.0186
25.2759
11.0491
27.6574
25.7984
26.4583
8.52325
12.229
23.3292
10.6659
11.4203
27.747
13.1524
7.87107
19.9806
5.04468
4.98368
19.7083
8.34425
9.53379
7.2344
9.33711
4.49472
4.79385
5.03418
5.28057
9.06843
21.5996
7.19443
16.5726
10.1377
6.9844
7.33635
10.9304
24.7637
10.509
21.8901
9.92105
19.7167
7.93402
16.7346
6.26819
4.5126
5.3614
3.24165
3.67381
4.06859
4.51545
6.06098
10.207
18.6054
12.1072
30.9827
17.6825
20.4585
27.3261
17.5136
6.0848
6.28142
10.2961
6.25724
10.6862
11.4687
17.4526
10.1985
9.49106
16.1961
9.76261
15.3524
7.42419
14.7084
6.79374
4.17689
4.15808
5.45204
5.03258
5.4504
4.92381
20.6019
15.594
24.1819
15.8476
8.37458
8.4629
22.5447
8.29041
8.64437
21.7116
3.00412
3.05213
1.88439
21.7116
2.7585
2.54172
21.7116
1.79282
2.71523
4.26884
2.50754
10.1567
10.2361
10.1741
10.1364
11.2223
22.387
10.5325
5.73768
6.22438
12.9785
22.387
4.55215
4.66321
5.20521
8.15065
13.0181
11.0263
9.76944
11.3099
26.0388
5.71113
5.86925
8.78954
7.9843
31.4532
9.97683
8.44997
29.9691
6.62644
6.14776
18.5105
6.49005
11.7398
7.98439
18.5105
6.15586
6.02145
8.30799
6.46571
4.75394
9.45155
8.19301
9.99221
28.1364
8.27005
5.46224
15.8312
22.8489
16.2504
22.2954
4.31323
4.04424
5.30603
4.97222
7.40018
6.32907
11.0196
6.15346
6.73724
8.64639
23.1757
12.6241
11.4094
7.58945
18.7801
6.71736
7.58444
7.71318
15.9208
15.9208
18.256
4.16718
8.70979
8.83077
4.93784
4.36078
8.34814
4.52213
4.5718
4.42172
4.41194
4.58792
4.61225
4.51096
4.56933
4.59883
4.64412
4.52308
4.43157
4.51729
4.48528
4.44963
4.55735
4.44306
4.41595
4.36164
4.36021
4.43939
4.37605
4.45563
4.38752
4.49345
4.47612
4.36072
4.42452
4.40886
4.46028
4.44867
4.25622
4.32125
4.33692
4.37333
4.31352
4.34987
4.38582
4.43476
4.26054
4.30419
4.26051
4.25485
4.32316
4.3705
4.33696
4.41948
4.34342
4.36762
4.3394
4.3718
4.32846
4.35928
3.73705
2.84362
2.85864
2.84904
2.84189
3.5434
2.86885
2.85392
2.73548
3.81574
2.69252
2.78293
2.78989
2.83301
2.65873
3.42152
29.4186
16.9399
16.7084
20.0101
12.8822
12.9054
13.2591
15.0408
12.9848
13.3726
28.7682
31.3812
27.5215
18.3666
13.5871
10.9577
3.57253
3.51498
3.77498
3.91464
3.71186
3.63047
3.56077
3.51391
3.60242
3.63268
3.66313
3.85492
3.82744
3.60424
4.68867
3.7291
3.64845
3.65499
4.55612
4.61342
4.57945
4.50835
4.47807
4.51558
4.52822
4.54442
4.54291
4.52533
4.55711
4.62789
4.54476
4.5849
4.60733
4.62443
5.83194
5.59734
5.91722
5.59365
5.36373
6.01475
6.36205
6.03732
5.86438
6.0377
5.881
5.75852
6.01503
5.7404
5.81259
6.24719
6.34148
4.71556
4.86919
4.67463
4.70574
4.6281
4.59606
4.68418
4.80712
4.60644
4.5034
4.72784
4.55965
4.49694
4.50966
4.5794
4.44559
4.62344
4.18838
3.72829
4.07854
4.68037
3.46403
4.2239
3.97352
4.27917
3.65782
3.48282
3.92369
4.83715
4.62871
3.86562
4.14879
3.97718
4.82305
4.95117
2.18394
2.16614
2.20668
2.41346
2.06238
2.50889
2.19285
2.17026
2.17707
2.62473
2.27266
2.17092
2.2097
2.10964
2.58106
2.5425
2.76371
2.52679
2.83815
2.82053
2.83033
2.62674
2.55634
2.86511
2.87995
2.84635
2.60004
2.45231
2.47162
2.76044
2.60473
2.73579
4.25219
4.27003
4.29403
4.49668
4.54523
4.2904
4.29412
4.49532
4.4242
4.46966
4.27001
4.5302
3.91168
3.33491
4.23621
3.1952
4.15481
3.7933
4.09195
4.06042
4.07041
2.92218
2.80744
2.92262
3.18011
3.17104
2.93483
3.18824
1.98842
2.48016
1.93868
2.33484
3.33447
3.02689
4.40264
2.85427
2.81689
2.37696
2.19992
2.04455
3.74041
2.17738
2.29913
2.53257
3.64857
3.62834
3.65302
3.68668
3.80731
3.70374
3.65071
3.60418
3.59019
3.67876
3.70917
3.68194
3.69708
3.76492
3.76924
3.6813
3.64524
3.71932
3.59242
2.4912
2.4666
2.20452
2.78648
2.4292
2.70743
2.60743
2.29938
2.46521
2.16444
2.66546
2.54551
2.43186
2.4446
2.9642
2.72677
2.80482
2.898
2.73069
2.80801
2.58194
2.50703
2.58934
2.40447
2.44908
2.73022
2.55613
2.49526
2.5395
2.33067
2.38872
2.52048
5.00085
6.2102
6.36325
3.93379
3.94168
5.38577
4.6856
3.33861
3.65848
6.91181
5.55863
5.41144
5.4845
5.93455
5.90458
5.88379
6.5009
5.72607
6.39007
5.50448
5.77051
6.57967
8.34712
8.15633
7.05412
7.93845
7.92585
6.86475
5.95823
6.77039
6.78527
6.3631
2.73804
2.77638
3.00931
2.87013
2.87157
2.67015
2.8055
2.83284
2.81671
3.49668
3.90223
4.36945
2.62358
3.81766
5.19016
3.57909
4.42903
2.18451
2.9
4.3343
5.80627
3.02993
3.34188
7.80712
5.52139
3.6691
7.03184
3.864
4.73785
4.32914
4.52768
5.76352
5.80909
6.70408
7.33607
7.69496
7.7752
6.33375
7.78123
7.0374
7.78352
2.08386
2.14121
1.87065
1.90046
1.95342
1.90682
2.03003
2.05754
2.49268
2.00328
2.18062
2.24749
1.86622
1.9387
2.31794
1.93262
2.17347
2.14148
2.05962
2.46506
2.5469
2.01136
2.59671
2.32129
2.78262
2.34624
2.32009
2.98779
2.83419
2.21081
2.57409
2.81703
2.62739
2.595
2.93413
2.23043
2.40938
3.14113
2.68001
2.30531
2.07927
2.1067
2.80913
3.59801
2.33468
2.41701
2.94993
3.34877
2.35603
2.33746
2.56938
2.27391
2.27631
2.76192
2.861
3.29616
2.33134
2.31424
2.49583
3.33207
2.38587
2.34182
2.59226
2.29824
3.86322
4.91476
2.13769
2.29025
2.48288
2.73233
2.24994
2.34842
2.70388
3.42444
4.08336
3.66734
2.39894
2.41983
2.22699
2.83979
2.46128
2.7558
2.73372
2.50758
2.58453
2.55934
2.45294
2.36967
2.52975
2.52146
2.61045
2.5704
2.37881
2.63768
2.68727
4.44277
4.7325
4.84087
4.53074
4.68476
4.73627
4.84707
4.60622
4.69611
4.80858
3.05442
2.69005
3.06217
3.43087
2.53921
2.51673
3.38242
4.10444
2.61156
3.34851
3.19913
3.20704
3.6139
2.59507
3.49144
3.21059
2.51945
5.74731
6.06049
5.90091
6.26621
5.96174
5.66303
6.20863
5.90876
5.74245
5.701
5.84508
5.7291
6.02259
5.71771
6.09543
5.58518
5.67727
5.50147
5.66371
5.52332
4.76845
4.83162
4.74933
4.77858
5.02263
5.15295
5.60134
4.91651
4.9257
4.7955
5.47886
5.53067
4.7603
4.86499
5.09197
5.81721
9.25784
7.85622
7.06654
7.67709
11.8566
9.34319
12.0639
11.6553
9.72014
9.4636
11.8696
10.7072
10.4195
2.85787
3.07698
2.87366
2.73006
2.65371
2.70075
3.02089
2.90765
2.73191
2.76227
2.50558
2.78954
3.85216
4.2516
3.98657
3.89698
4.18558
4.09833
3.76515
3.7341
3.70133
3.77133
3.79727
3.76657
3.8516
3.82417
3.91741
3.84959
4.02349
3.85423
3.84763
3.98511
3.96331
3.74334
3.73645
3.95197
2.95135
3.39479
3.77769
3.50818
2.78585
2.79072
3.36757
2.65212
2.98651
2.94696
2.73247
2.7161
2.95376
2.77505
5.03763
5.36497
5.38266
5.09262
5.07072
5.25042
4.69845
4.47806
4.93433
4.90723
5.04964
4.77046
5.54472
5.13701
5.41908
5.26337
4.493
4.91455
4.63146
4.40185
4.39266
4.47869
4.41377
4.38333
4.41204
4.50453
4.586
4.47834
4.55851
4.56651
4.80155
4.64193
13.6448
11.8611
12.71
12.1302
14.467
11.637
5.77885
6.34944
5.94559
6.33523
6.12732
6.84884
8.80636
10.8357
11.1772
8.43522
10.3281
10.4634
6.78961
10.0394
6.67523
7.63114
7.34506
7.07505
6.83767
7.15402
7.73154
7.37598
6.90094
7.31401
7.38453
7.05748
7.49291
6.96556
7.13365
5.01239
5.33379
5.31611
5.34973
5.96338
6.33246
7.20642
6.08296
7.54211
7.9758
7.53203
6.72751
8.54099
9.05152
3.73221
4.13031
3.62533
3.71752
3.59466
3.80453
3.42306
3.2372
3.95088
3.47617
3.61255
3.22966
3.38731
3.21995
3.24501
3.1959
2.38674
2.43092
2.32623
2.35179
3.59588
3.68173
2.19095
2.86855
2.8931
2.19548
3.49481
3.2959
4.10758
3.23241
3.2398
3.75715
3.64638
4.37356
4.50199
2.66568
3.31255
2.99948
2.85823
2.75414
3.83226
3.13002
3.35468
3.59335
3.40962
2.59699
2.63171
2.89417
2.67352
3.56307
3.33665
2.7724
3.0954
2.8672
2.97811
2.63213
2.74324
3.08895
2.79545
2.77733
8.25863
7.18759
7.20081
8.12687
8.51394
7.54531
7.38059
7.57493
7.54211
7.46966
7.61234
7.44488
8.21747
7.98549
8.07335
8.32669
8.03974
7.83629
7.39841
7.8572
3.11816
3.07939
3.04276
3.01242
3.04591
3.20276
2.96168
3.04619
3.18182
3.05462
3.02279
3.01677
4.7934
7.07596
24.4414
5.41715
18.7294
6.39457
11.434
20.8514
22.4411
5.15222
11.5774
14.3472
24.0387
6.67083
11.4317
3.97273
8.38266
5.28683
4.6776
8.13015
9.5506
7.50801
4.62088
3.93016
3.85277
12.3974
14.4543
13.6928
15.2737
3.81098
3.97464
3.821
3.67237
3.79375
5.64837
6.28947
5.24445
1.99501
2.30574
1.84678
1.99762
1.85884
1.8028
1.76594
1.85564
1.81532
1.82088
1.90391
1.84026
1.8295
1.82515
1.8348
1.82495
5.55036
5.46046
6.00381
5.80143
9.32939
7.80981
5.23447
6.38994
7.77977
7.61489
8.41394
7.47231
3.83439
11.6951
13.6922
9.74311
12.5394
4.59168
2.81111
9.67743
2.89011
8.48827
16.6996
4.7689
8.15551
4.08554
9.93857
18.8964
10.0968
2.73113
4.40766
5.17726
19.8583
4.50351
6.6051
8.04667
12.7109
4.14879
8.05202
3.71542
21.1977
5.85427
7.10211
25.3542
5.3671
8.46952
7.7774
7.76073
16.3194
5.63456
6.59956
11.226
15.2628
4.488
3.9818
8.70865
3.87934
8.82709
16.2424
8.63224
3.49635
3.89922
15.0815
9.38522
3.8464
3.53763
4.36906
3.65433
2.61189
3.07092
2.77622
3.73465
3.87418
2.34398
2.4747
2.49989
3.45547
4.276
2.84862
3.08433
2.47303
3.39725
3.54376
4.34672
3.67814
4.09672
4.13259
3.91601
3.95317
4.68087
2.78981
3.62934
4.25635
3.9859
5.96367
8.54556
5.25795
11.894
11.5773
10.9847
10.7642
12.2762
10.6203
10.1889
10.7769
11.1097
11.0528
12.3953
12.9159
10.2056
10.4345
10.8137
11.2203
10.9099
12.386
11.6155
10.803
8.14903
10.1501
6.96575
6.77797
10.965
10.9939
18.2478
15.8621
6.61806
7.02091
8.06604
10.3897
11.4679
15.3743
8.14066
10.1722
6.52532
6.6023
7.36954
5.15241
4.45804
4.37128
4.04008
11.6713
15.6458
10.1268
12.7849
4.90146
4.42649
11.6269
7.42388
4.73973
7.40412
13.5563
8.47766
6.46597
11.4519
6.45568
11.5609
2.30126
2.2716
2.7009
2.34055
2.66887
9.06915
11.5761
5.07234
5.46614
3.77743
3.47512
2.69981
3.49566
3.26293
6.40681
3.15495
2.594
2.3358
3.19823
6.06445
5.77473
6.42344
6.59327
6.47754
6.77145
6.62167
6.31202
6.17737
8.25685
9.34223
10.3056
10.1619
7.30259
6.85364
7.59446
24.4814
22.8348
24.0491
26.0454
30.4431
27.4808
30.3361
43.4263
40.9921
36.5483
32.3049
31.6982
44.7037
33.7529
32.5195
31.2404
38.9019
38.7572
39.4793
29.3602
7.95436
9.58028
7.82244
10.104
6.26244
6.67597
4.25267
5.27278
11.935
8.134
16.9927
9.2886
4.66908
4.44647
14.0567
11.042
16.9477
8.78678
19.0074
6.531
30.64
37.5218
41.4723
55.8866
42.0922
29.8297
24.6174
39.5088
47.111
41.9993
45.3364
35.6073
62.5733
41.0425
79.0112
80.9929
55.2753
3.29388
12.0787
6.99023
32.1381
6.10914
5.87379
8.53912
7.76027
39.635
7.58409
2.03285
21.3561
12.1228
11.5939
15.2063
14.5432
13.1314
11.6023
10.9359
10.6826
14.0157
15.139
12.595
12.9306
12.8398
14.1861
11.5745
12.8931
12.8147
12.0092
15.4357
11.2156
11.3258
5.79979
5.68898
5.4855
5.62313
6.31545
5.86442
6.30268
5.73461
5.51047
5.63019
5.58536
5.46785
5.40897
5.36128
5.82205
5.67832
5.59401
5.49448
4.8253
5.26156
4.81298
4.98632
5.09307
6.31422
4.77725
4.95663
6.08242
6.95907
5.13603
4.85072
5.07795
5.91357
5.16131
6.01543
6.43251
6.43358
6.0753
5.71025
6.54549
5.57291
6.33672
6.2322
6.35322
5.6102
6.23958
6.21954
6.25692
3.13544
3.20887
3.1674
3.30307
3.07219
3.02919
3.15381
3.12822
3.47365
3.62603
3.1242
3.13942
3.18656
3.29093
3.49419
3.42095
7.12307
7.17616
7.31241
7.12062
7.08555
8.11441
6.97119
7.0674
8.47836
7.27822
6.59561
6.42305
7.12239
7.85587
7.68857
7.2239
7.25944
21.8377
21.9963
16.7873
18.1163
19.6366
21.935
25.1973
25.506
18.6401
19.7753
25.5625
30.1078
24.868
26.6352
23.7593
25.1517
24.129
7.27507
5.79732
5.36782
7.78453
5.19831
13.7672
20.2853
5.31335
11.2
11.4334
8.63432
10.1672
11.4295
5.73779
3.31682
10.1631
22.5995
4.12979
8.27186
6.79138
5.63488
4.63667
4.46842
6.87187
6.56057
5.27341
5.16375
4.92534
4.81599
4.77701
5.00023
4.65024
4.49191
4.85758
4.59173
4.638
4.86029
5.25891
4.684
4.6821
3.87682
3.5438
3.25165
3.55191
4.11599
3.3938
3.31138
3.34133
4.35087
3.30507
3.46156
3.65726
3.77815
3.32831
3.18133
3.12957
5.43488
4.44941
4.84522
5.73461
4.7708
4.29698
8.93811
5.82203
6.20332
6.17722
14.2034
8.16422
4.99625
9.03644
4.33319
7.28791
8.9667
13.9099
16.4572
10.1227
14.6514
16.9855
10.722
15.3821
11.2693
7.88126
5.85745
4.56095
14.6348
9.76087
11.1108
3.04482
4.36326
11.4452
3.90796
10.3973
9.48449
3.81195
3.51132
3.29411
8.08806
5.57538
5.54411
5.50021
6.58065
5.62391
5.6079
6.41283
5.70033
5.60289
6.38462
5.64345
5.4193
7.58768
6.87003
10.2321
6.15903
6.92027
8.57235
10.5143
9.12768
7.91938
7.04656
5.55683
4.42792
4.51525
4.69831
8.38748
6.95288
7.25459
6.89525
6.50148
4.19208
6.17742
7.61222
7.69027
18.2105
17.6177
6.37035
6.44539
6.90527
20.6276
8.45123
12.1659
7.48349
3.31793
9.03043
14.7787
6.12741
4.82109
4.04787
9.65726
8.42447
14.2824
16.3509
6.68894
9.12038
9.98608
4.14809
6.10321
5.64836
4.39756
4.38253
9.53054
8.6134
10.0384
15.724
6.92846
10.277
4.40674
4.09992
7.72312
4.25874
4.67056
4.82304
4.23207
4.77412
4.32784
4.09243
4.0542
4.86365
3.96902
3.81793
4.00042
3.84978
3.71895
3.59117
3.68334
3.66028
3.64624
1.96482
2.00016
2.01837
1.99666
1.98198
2.11597
1.94832
1.94357
1.98581
1.95937
1.93931
2.09993
1.98122
2.05006
1.9566
2.04747
1.97421
1.985
2.01606
2.32121
2.15246
1.98332
2.49186
2.21598
2.14402
2.13881
1.8465
1.6753
1.62116
1.87674
1.99857
1.60842
1.59554
1.76931
1.76648
1.59386
1.70787
1.66812
1.668
1.68021
7.41614
8.50799
9.75626
11.3932
8.33388
11.3351
7.88933
6.95212
10.0808
7.73265
7.29632
7.63245
7.0501
6.57623
9.30184
7.63289
8.21347
3.94741
3.46572
3.95873
7.66229
6.33395
3.46855
3.75883
3.74602
3.30539
4.62823
5.16568
7.21895
3.32197
3.22943
5.30351
6.7545
2.74338
2.8887
2.88288
2.85167
3.08728
3.95387
3.05912
9.83435
7.60815
3.51628
3.21008
4.85234
5.64442
8.27828
6.07142
6.2946
7.1618
8.00301
15.2847
21.091
10.7669
20.1732
4.40927
7.44391
4.19571
1.83142
1.78154
1.83491
1.78554
1.69916
1.84579
1.79343
1.7657
1.91242
1.99387
1.87307
1.83088
1.77772
1.8385
3.18172
3.18843
2.89275
2.85201
4.13245
2.65104
2.83341
3.8026
4.47675
3.8535
4.77483
3.47089
3.18297
3.9753
2.57982
8.48406
4.60758
19.3013
19.3013
4.18123
19.3013
6.07985
5.68022
10.5416
6.45678
7.66168
5.8802
4.70385
4.39089
7.44803
4.76891
4.79233
6.21975
20.3901
24.2412
25.6169
20.3904
21.2808
21.4983
23.7106
19.6307
23.4756
19.5385
10.0153
10.6876
7.67667
11.8454
4.30198
3.90789
3.50932
4.80531
7.18529
8.77666
10.4918
10.0317
8.79369
3.69608
3.86844
2.77359
7.99208
9.53012
3.8619
3.76098
3.65396
4.05688
4.23318
5.62108
4.40228
4.44949
5.78334
12.2309
5.22691
3.85669
4.32526
12.2309
8.75474
14.3482
5.3785
3.76717
3.95073
5.4575
5.3325
4.30839
7.9962
7.87176
7.45914
8.00129
7.59581
7.28374
7.66935
7.53797
7.09073
7.45186
7.15742
7.50099
7.77998
7.52917
7.15644
6.78219
7.02027
6.74273
7.22898
7.90955
7.87843
7.49092
7.74337
7.33445
7.24399
6.5842
6.08447
6.40161
6.12794
7.25158
7.29423
8.23815
7.85372
6.0589
6.05612
6.19404
7.18916
29.2614
29.9927
24.9819
23.6182
38.8025
31.9793
36.7127
30.9435
29.011
45.8809
35.6811
37.5555
37.195
44.015
58.1721
55.9105
4.68254
4.88393
4.87896
4.66036
4.62213
4.66633
4.69032
4.61076
4.81158
4.80586
4.55112
4.71966
4.56261
5.44941
5.18817
5.48981
5.47001
5.38902
5.09832
5.7645
5.53662
5.71473
5.47376
5.63316
5.75704
5.34392
5.49745
5.36458
4.878
4.95078
4.75382
4.82702
5.15744
5.06747
4.73634
4.76246
5.10687
4.92041
5.00954
5.04378
4.93433
4.95602
5.09112
5.26744
9.95948
9.91237
9.72928
9.10399
9.256
9.61257
8.94553
8.78769
9.22982
9.37259
11.2154
11.0218
9.50617
9.18834
9.32401
9.40408
10.8552
9.75775
9.91564
9.73091
8.26961
8.09625
7.69982
7.30339
7.9336
7.74347
8.58446
7.90416
8.83306
6.616
7.06823
8.66239
7.37847
8.14875
8.66914
9.65228
8.94852
8.82569
9.84223
10.023
10.4365
9.3502
9.74449
10.7315
9.57188
11.4388
12.1988
11.5644
9.77515
8.97261
10.329
12.5712
11.0704
12.8423
11.979
12.1895
10.1453
13.5954
12.1921
11.1586
10.7144
11.5612
12.4183
9.96805
9.72763
9.56512
10.341
11.1161
3.2956
3.05974
3.01977
2.99352
3.438
3.38212
3.33915
3.47758
3.52936
9.17762
9.57356
8.48692
8.52218
9.15313
8.3559
8.26568
8.7026
7.93628
7.77671
7.86296
7.82742
8.09729
8.87769
8.34335
7.89973
8.19041
8.37808
8.70924
9.23852
7.88226
8.60728
3.75226
3.80519
3.74654
3.75792
3.775
3.91472
3.81114
3.64705
3.79665
3.70324
3.79563
3.66754
3.80824
3.62579
3.63663
3.6704
3.708
3.68572
3.70295
3.68652
4.98103
4.76981
4.8711
4.67865
5.01584
4.76743
4.84492
4.94266
4.87521
4.78278
4.81108
4.6239
4.69682
4.73968
4.69929
4.93229
4.83786
4.95212
4.63371
4.82192
4.68817
4.92121
4.65443
4.5107
4.59783
4.61967
2.84699
3.04722
3.07272
2.89836
2.6658
2.73068
2.4855
2.5986
3.02529
2.56676
3.08599
2.7832
2.71051
2.42907
2.47328
2.70596
2.4982
2.50279
2.48905
2.50628
2.52261
2.5744
2.56917
2.71354
2.50415
2.57814
3.23416
3.28537
3.3736
3.36435
3.15326
3.18464
3.20596
3.67171
4.12891
3.66589
3.60143
3.22809
3.2811
3.30296
3.36543
3.33395
3.4811
3.28356
4.22688
4.30614
4.48144
4.25591
4.16564
4.39757
4.4211
4.13311
4.14897
4.25395
4.34028
4.15262
4.08933
6.45809
6.97878
6.53072
6.21918
6.54016
6.93275
7.44607
6.80015
6.75377
6.42539
6.58556
6.99686
6.63794
3.55009
3.04978
3.40176
3.49608
3.30732
3.15881
3.34733
3.38433
3.35871
3.6245
3.61972
3.49589
3.60484
2.56348
2.26245
2.26421
2.2823
2.29296
2.53497
2.40041
2.54061
2.29282
2.29494
2.37031
2.38458
2.28825
2.29489
2.34608
2.31823
2.25335
2.29928
2.41533
2.43239
2.30009
2.31656
2.5118
2.49511
2.76924
2.37344
2.45449
2.51621
2.36515
2.46472
2.39414
2.55999
2.53817
2.48869
2.47448
2.50791
2.56491
2.5483
2.46831
2.44534
2.52568
2.59523
2.5041
2.53222
2.61108
5.16469
5.40532
5.6904
5.2378
5.40156
5.35257
5.52849
5.10199
5.19779
5.3554
5.04914
4.74836
4.65737
4.92093
5.10763
5.304
4.85222
5.10094
4.93898
5.1566
5.17656
4.87036
4.88442
5.01103
5.56323
5.65906
5.71956
8.25816
5.7026
5.34434
5.45026
5.44247
5.5462
5.67745
4.60151
5.02569
5.21314
4.88374
5.94532
4.5009
4.86999
4.94537
5.39658
4.82349
5.09864
4.83039
4.87277
4.92837
4.69462
4.63517
4.67232
4.85694
5.11098
5.02033
5.21842
4.82745
5.06464
4.50754
4.5711
4.32475
4.36046
4.51731
4.65105
4.63335
4.67577
4.97161
4.9752
4.66052
4.58104
4.721
4.82864
4.7654
4.67367
4.83076
4.82199
4.76754
17.117
15.8004
19.7464
14.2167
14.5045
18.3712
19.8416
16.3821
18.5639
17.3099
14.4899
18.6674
15.6228
4.1326
4.20449
3.92578
4.01322
4.06824
3.86729
3.82421
3.99745
4.02025
3.92093
3.86546
4.2126
4.10848
3.84245
4.06103
4.02614
4.5034
4.06571
4.63594
4.43524
4.0232
2.41674
2.42654
2.41365
2.46327
2.45246
2.4285
2.50308
2.50841
2.43675
2.36954
2.52441
2.55217
2.37137
2.42494
2.38259
2.43461
2.47635
2.47281
4.57104
5.48235
4.46124
4.78492
4.84592
5.19179
3.96168
3.7784
5.18065
3.95856
4.59783
5.61264
4.75113
4.59507
4.56923
4.32292
3.87914
4.44807
4.82245
3.88258
5.05975
4.57466
4.17704
3.84491
4.37974
5.00357
5.04342
1.77944
1.84787
1.86378
1.74884
1.87006
7.92459
8.0822
8.35659
6.30705
9.95056
6.08554
11.2275
13.3169
14.6639
12.0004
16.0796
12.7644
11.2417
13.5554
7.6472
5.70685
5.49856
5.88243
5.7516
4.56237
4.08108
4.53055
5.2468
4.59963
4.09793
3.67148
5.1973
5.78992
3.76127
3.84021
4.28474
4.36127
4.22291
4.91109
6.31486
7.28032
6.5475
9.66575
12.7299
2.26522
6.86097
3.40255
4.39677
18.9545
31.1606
21.2412
21.127
9.8008
4.57747
7.94453
19.8636
18.2977
6.90011
4.92495
5.17686
4.25297
4.07232
4.20734
3.88562
4.00164
4.53314
5.63408
5.26514
3.59309
4.35916
5.15065
4.47029
5.16708
4.01576
4.87005
4.72678
3.70998
3.77874
4.63341
3.4705
4.5765
5.02926
5.37369
5.12434
3.53867
3.42356
3.56692
3.61751
4.086
4.03985
9.38575
10.025
9.8525
9.29475
9.4987
9.39573
11.4707
9.11689
9.99144
10.6934
6.73591
6.64625
6.85128
7.82301
10.1284
8.01047
10.2695
10.1114
6.83654
7.98978
5.15526
6.94602
3.63151
3.62202
3.59895
3.5636
3.56742
3.50265
3.58367
3.61932
3.58898
3.59241
3.53658
3.49175
3.48759
3.59803
3.57502
3.52392
3.55333
3.52528
3.44266
3.49065
5.725
5.93036
7.03909
4.65128
5.61781
4.74706
7.14209
5.0938
5.48532
4.46109
4.52691
5.4421
4.67687
4.52435
4.87097
8.67924
8.63927
8.51325
9.22452
10.0204
8.10107
9.49551
9.31485
3.03703
3.15385
3.12182
3.14879
3.1079
3.10225
3.14114
3.22856
3.06602
3.06539
3.17009
3.08402
3.57649
3.67235
9.84965
5.4105
3.40684
4.04414
9.34053
6.95626
9.58131
10.0676
15.2246
7.52051
11.5439
17.3771
7.17522
4.47014
4.45504
4.88965
2.9942
3.04136
3.007
3.02095
3.08476
3.03907
2.99965
3.16477
3.0844
3.07696
3.12799
3.18658
3.05469
3.03984
3.06884
3.17563
3.22438
3.10454
1.88265
1.88443
2.03442
2.07844
1.94576
2.03125
1.86557
1.88363
1.93207
2.15143
2.00847
1.92097
2.3523
1.9546
2.00288
2.01934
2.02761
1.91423
1.92041
2.08786
2.0201
1.90172
15.8265
14.4475
16.3193
18.9281
15.1688
18.0752
15.9101
14.3575
17.0395
18.8472
18.4896
17.0448
16.7715
15.6477
17.0035
15.2597
6.35663
6.33298
6.21179
6.77568
5.91961
5.69461
6.42293
5.70047
5.36466
5.5252
5.79064
5.69054
5.61245
5.33416
5.46646
5.73426
5.41667
5.43423
2.26912
2.71103
2.66674
2.29306
2.13833
2.04377
2.41684
2.49431
2.39959
2.2794
2.17385
2.19796
2.11269
2.06808
2.21302
2.1158
3.89807
3.869
3.94647
3.88727
3.73501
3.89238
3.87354
3.88649
3.90971
3.89736
3.86088
3.91375
3.90127
3.87454
3.82386
3.81731
3.78504
3.78224
3.73062
3.74039
8.81092
8.61104
7.61639
6.5948
5.01172
7.1343
5.74506
6.23974
6.68891
7.94075
5.07807
4.84633
5.85525
6.05692
5.32987
5.60298
3.92784
4.06239
3.4636
3.53674
3.17979
3.55895
2.84354
3.42968
2.87814
2.66986
2.81058
2.67251
3.58791
3.03366
2.53948
3.26209
3.97909
2.14817
2.08135
3.47143
3.22561
2.97979
2.02523
1.94899
2.68694
3.14565
2.2808
2.17878
2.66818
2.82492
2.83397
2.84228
3.065
3.11167
3.0628
3.12658
2.80687
2.87956
2.69044
2.76354
2.79058
2.74564
2.97639
2.97213
2.72375
2.86981
2.94287
3.77421
4.05232
3.39704
3.12027
4.53421
4.13174
3.4922
3.49205
3.9299
3.10501
3.15072
3.0566
3.07511
3.21701
3.24177
3.08816
3.19878
3.15852
3.63766
3.35313
3.21382
3.23885
3.30444
3.31317
3.27194
3.20611
3.32735
3.30749
3.24696
3.32279
3.23846
3.25335
5.93069
5.63128
5.6956
5.83235
5.56983
5.75188
5.85369
5.77295
5.68743
5.70683
5.68594
5.52792
5.51029
5.51616
13.3022
13.648
17.8938
17.4838
18.3759
18.4896
13.2144
11.8369
15.4286
16.3646
13.5946
16.5859
14.4315
15.0424
1.89797
1.92519
1.9518
1.95955
2.28059
2.4522
2.25785
2.39434
1.94266
2.16033
2.13904
2.12723
2.24447
2.10263
1.99526
4.84046
5.65355
3.89828
2.39094
4.20892
5.40153
5.9434
3.60424
3.98491
3.62844
3.6787
4.01251
3.69647
3.75451
3.61983
3.47342
3.74428
5.85179
6.11986
4.87325
4.98537
4.10707
3.84025
4.76839
5.39451
3.82269
3.79999
4.79134
3.72944
3.64663
3.71498
3.56917
3.58997
3.53921
3.69635
3.60777
3.56193
3.62415
3.42574
2.98589
3.02404
3.32371
3.41509
3.53271
4.12512
3.10667
2.98983
2.97905
3.49749
2.99844
3.00734
3.89726
3.75521
3.4119
2.89292
3.43141
2.59989
2.43314
3.59958
3.41611
3.40992
3.17115
3.6559
2.37697
3.04787
2.49688
3.4535
3.72282
3.19067
3.50998
3.848
4.05375
3.46719
4.02487
3.81352
4.17144
3.9643
4.27391
4.23201
4.12578
3.44906
4.03886
3.2148
3.26136
3.94275
3.71801
3.58161
3.41161
4.0776
4.11344
4.17713
4.11102
3.97835
4.09319
3.99574
4.02976
4.03565
4.02015
3.95621
3.97771
3.97325
3.92836
4.03033
4.03768
3.9673
3.93545
3.94509
3.91674
6.89304
6.5921
5.31569
5.70493
7.31684
6.24809
5.53389
6.56101
4.93878
5.05779
5.02458
6.71105
7.84258
7.4314
7.49953
7.55274
7.66709
7.45835
8.02036
7.87443
7.33362
7.36757
7.05185
7.10783
7.0388
7.9574
7.65497
2.26926
2.34146
2.28884
2.26813
3.02049
3.00219
2.94214
2.7956
2.81388
2.45063
2.64673
2.19578
2.21967
2.56794
2.56165
2.4255
2.84807
2.84597
3.26095
3.05283
2.89508
3.8165
3.80505
4.23365
4.06592
3.50536
3.91095
3.6362
3.96543
6.92746
6.12913
6.26942
5.89292
6.45736
7.9382
5.98896
6.07063
5.90466
6.1198
6.60185
8.08441
6.13468
14.8641
15.9186
15.4328
12.907
13.9863
13.0565
12.1888
9.40358
9.97805
15.9348
15.1324
16.2146
16.4301
9.95382
9.73703
13.8206
11.6825
10.2447
11.1626
13.8964
4.75996
4.7385
4.63299
4.71662
4.53793
4.46978
4.94823
4.59105
4.65674
4.58312
4.93906
4.65388
4.66933
4.9151
2.78048
2.14792
2.18303
2.1769
3.75401
5.5406
3.0605
2.82487
3.51658
3.9782
2.21227
2.44741
3.25168
2.83516
2.09527
3.19708
2.6314
2.25072
6.3979
7.03404
5.04135
5.04497
6.40947
6.92309
6.27205
5.09781
5.19338
5.50264
5.22559
5.13457
6.47514
6.94883
7.37108
6.23078
6.76834
5.82124
5.74135
5.29014
29.6958
6.79917
13.8656
6.93037
9.43433
2.5958
2.53611
2.80508
2.89047
2.37966
2.49846
2.42033
2.37833
3.06559
2.85202
2.75793
2.69958
2.36251
2.54812
12.2964
12.4479
13.0206
18.543
15.9361
18.4427
6.12693
7.66277
11.803
15.6432
6.36942
4.76604
4.8737
4.95678
4.88813
4.62662
4.64218
4.76064
4.73892
4.86727
5.01368
4.87828
6.96057
7.08852
8.3019
7.9032
6.59818
6.17295
6.22726
7.70048
6.80591
6.39547
6.49863
5.91062
7.66806
8.26601
7.5327
5.60377
5.72161
5.50686
5.44358
5.62821
5.50912
5.22637
5.3297
5.28257
5.28602
5.53352
5.79227
5.3989
5.50328
5.43935
5.39044
5.69593
5.83236
5.40841
5.62898
5.51445
7.85155
7.47411
7.50165
7.08567
6.84495
6.39822
7.69451
8.16926
7.21154
6.51859
5.94491
6.85446
5.94237
7.43285
5.90938
7.07755
6.45471
8.27288
8.21647
7.92996
7.80895
8.50881
8.90656
8.37235
9.43661
9.81422
8.79063
8.24006
9.13398
8.55806
7.49102
8.16362
9.08911
7.98979
8.27657
7.70419
8.34771
5.83296
5.97459
5.77584
5.85516
5.5981
5.79408
5.95472
5.69627
5.74505
5.90648
5.88902
5.91741
6.12995
6.13801
2.662
3.03089
2.85503
3.00845
2.92258
2.79791
3.46496
2.78634
2.87292
3.0171
3.80392
3.00298
2.84075
3.94803
3.26009
3.81935
4.32536
2.87616
3.18047
3.55504
5.56295
3.77035
4.70639
3.29057
4.83377
2.08759
2.12951
2.29673
2.04985
2.18246
2.19898
2.10717
2.15075
2.23258
2.12236
2.03594
1.99838
2.05957
1.99675
2.07354
4.06274
4.13235
3.58932
3.33016
10.0325
11.1833
3.30033
11.7554
3.72917
3.96652
3.73008
6.56182
5.76118
10.6255
12.2692
8.29832
9.65454
8.56479
5.7288
5.87329
5.84458
5.71347
5.96993
6.47881
6.16383
5.99559
5.86544
5.68353
5.68452
6.35233
5.80921
6.40972
5.94472
6.48254
5.71133
5.67907
6.48797
5.91405
6.31555
4.58787
4.50047
4.5003
4.48082
4.52285
4.51628
4.58747
4.60782
4.5413
4.55295
4.60925
4.69715
4.8086
4.72409
4.68307
3.62699
3.69435
3.6519
3.63564
3.68362
3.75668
3.71338
3.60919
3.96062
3.77582
6.7445
6.89237
7.1587
6.96526
6.54865
7.07752
7.53136
7.3242
7.31902
6.85564
6.74988
6.99801
6.15405
6.37791
6.85163
5.41092
5.52489
5.83675
5.6832
5.79158
5.77084
5.10796
6.19745
5.86674
7.1528
6.72734
6.30912
5.29567
5.5736
6.65899
6.90775
5.76502
3.01825
3.14503
3.12199
3.12464
2.62142
2.93762
2.59391
2.61007
2.56723
3.26413
3.37536
3.16348
2.60621
2.84442
3.41081
44.3275
15.0162
20.9554
10.039
17.8925
35.7636
31.7618
26.3129
12.9739
11.5599
10.039
23.6689
15.8511
14.8706
27.3269
4.93758
4.79643
4.92705
4.87629
4.71979
4.84134
5.36337
4.94957
5.71221
5.09359
5.47381
5.01469
4.86806
5.1252
5.03577
4.8287
4.77123
4.87159
5.04197
4.66836
4.63535
4.97187
4.88108
4.98005
4.83762
4.81213
4.85207
4.69401
4.75176
17.6373
12.9491
18.9152
33.1291
24.0977
18.9396
17.1214
39.3817
19.3263
3.08199
2.86279
3.1581
3.1218
2.82821
2.85133
3.17874
4.03396
4.06768
4.90477
4.80661
3.59931
3.73399
4.56517
3.25536
4.15189
4.19919
3.29863
59.7774
66.9507
81.1591
38.2146
64.7922
75.083
105.35
101.138
45.083
89.1216
60.3073
61.1963
85.1143
88.1012
122.341
124.519
212.202
76.5919
92.2334
122.495
204.111
62.2228
65.9203
62.0295
81.1257
63.6792
121.402
46.9798
46.1196
82.0666
62.5248
8.78568
5.69272
7.14395
20.1354
8.39679
26.0862
4.9218
8.40866
14.6873
8.08728
9.50832
9.27971
10.5374
9.53756
10.0913
8.89167
8.39143
9.69434
10.6188
9.74633
10.5863
10.4502
9.85108
10.2956
9.90859
14.9586
15.0177
15.2521
13.935
16.9687
17.1583
14.4029
13.2125
17.1563
14.7818
15.3957
11.604
12.6518
10.7854
13.703
9.11388
14.9628
13.1001
8.56403
24.9358
23.4776
32.8723
28.7044
28.0429
26.8662
28.309
34.7049
37.1004
35.9941
36.8189
41.8265
45.2208
8.36041
7.47308
12.8801
15.5062
7.94404
8.39202
14.7105
11.4536
7.49416
7.28148
11.8784
8.51028
8.07859
8.2575
9.67276
14.1153
16.1712
19.624
15.4241
19.0711
16.3784
10.4464
22.8558
13.1775
22.5288
23.2162
22.4179
28.2482
24.9048
9.44662
8.58868
20.6701
26.5372
28.2316
20.7144
3.35202
3.31337
3.23026
3.27417
3.30654
3.33839
3.36832
3.31914
3.1899
3.19259
3.32031
3.36674
3.28363
3.36825
3.34283
3.68232
3.55668
3.58074
3.2504
3.4486
3.604
3.30435
7.34992
6.86805
7.18924
6.73583
7.12789
7.33373
7.8121
7.68395
7.34413
7.03134
7.11978
7.66987
7.11022
7.812
7.50096
7.4076
7.16619
3.57505
3.76487
4.06224
4.05756
3.89678
3.70354
3.54827
3.58974
4.14761
4.36717
4.86744
4.77454
5.38093
3.26029
3.79773
4.02606
3.9471
4.27248
3.89711
14.9363
12.8657
8.20601
8.49515
7.6867
7.46153
8.42688
10.1248
15.9676
16.2972
15.1404
15.5095
17.5224