/*--------------------------------*- C++ -*----------------------------------*\
  =========                 |
  \\      /  F ield         | OpenFOAM: The Open Source CFD Toolbox
   \\    /   O peration     | Website:  https://openfoam.org
    \\  /    A nd           | Version:  10
     \\/     M anipulation  |
\*---------------------------------------------------------------------------*/
FoamFile
{
    format      ascii;
    class       volScalarField;
    location    "14";
    object      p;
}
// * * * * * * * * * * * * * * * * * * * * * * * * * * * * * * * * * * * * * //

dimensions      [0 2 -2 0 0 0 0];

internalField   nonuniform List<scalar> 
75457
(
-34.4506
-31.1912
-27.1955
-24.7692
-20.1739
-21.523
-30.3561
-30.0115
-19.4353
-13.9799
-17.9734
-19.4897
-18.9508
-16.6588
-3.72701
-4.20525
-3.98802
-4.11945
-4.57226
-4.10731
-3.56402
-4.28165
-4.28289
-4.63892
-4.4105
-4.7716
-4.42714
-0.745486
-0.878028
-0.463285
-0.0965443
-0.409536
-0.538258
-0.547479
0.0381102
-0.897313
-0.772351
-1.11096
-1.16052
-0.272904
-0.455242
-0.241269
-0.686508
-11.8131
-12.0112
-10.8307
-10.9218
-11.423
-5.66252
-6.32912
-6.71616
-6.04176
-6.12454
-6.31575
-6.70249
-6.78332
-6.5261
-6.79413
-6.05395
-6.34431
-6.185
-5.97975
31.0782
31.3428
31.0827
31.4119
31.6441
31.6697
31.3255
31.364
31.63
31.4193
31.1556
31.4089
31.398
31.0831
31.2872
-7.30791
-8.50006
-6.97993
-8.49697
-10.5831
-4.91421
-5.22435
-7.28578
-8.09575
-7.96032
-7.86893
-5.0796
-6.0183
-5.01893
-5.04074
-5.89774
-5.24687
-6.85729
-7.0096
-7.04292
-7.38752
-6.98752
-6.8163
-7.99821
-7.22181
31.6721
31.5612
31.8228
31.839
31.7054
31.5558
31.4754
31.9265
31.9284
31.5426
31.5531
22.2665
22.9291
25.3942
24.9679
22.329
23.9102
23.9434
23.4114
23.7692
25.4609
25.2444
25.7875
26.3275
25.0798
24.5173
23.3188
25.7415
24.7368
13.798
13.7611
13.1817
14.0729
13.6656
15.1924
14.8789
14.7646
14.7561
7.91571
7.45773
8.02436
7.57135
7.00552
7.51475
7.53768
6.59382
-6.9982
-7.03805
-6.43499
-6.634
-7.01887
-6.67934
-6.39111
-5.90757
-4.36955
-4.41883
-5.94712
-5.67391
-5.21169
-5.91255
-4.79697
16.3764
17.9792
18.2218
17.5584
17.9795
14.2593
15.648
17.2112
16.2151
17.1798
14.4987
13.181
13.7759
-9.33891
-9.80248
-9.67695
-9.87474
-9.64977
-9.77939
-9.11145
-9.80307
-9.64767
-9.88184
-9.86624
-9.70651
-9.62899
-9.75481
-8.54252
-7.18349
-9.65901
-7.07148
-7.39529
-8.99559
12.2569
13.0432
11.7232
12.4642
10.6982
11.5085
13.8238
13.5463
12.6419
9.93106
9.91533
-7.54494
-7.39326
-7.80444
-7.7649
-7.70924
-7.64101
-7.48197
-7.35292
-6.96638
-7.78706
-7.53502
-7.32072
-7.67609
-7.28862
6.3671
5.42496
5.82474
4.129
4.68205
5.44282
5.3688
6.59939
6.16966
5.2309
4.6286
3.9715
6.21408
4.6619
-6.98318
-7.05406
-6.80116
-6.75878
-7.05439
-6.99113
-7.06611
-7.03339
-7.20548
-6.76076
-7.01258
-6.49208
-7.109
-7.19059
-6.94032
-6.89626
-7.05386
-10.2486
-9.8892
-9.93384
-9.77718
-11.0267
-9.45164
-9.47105
-8.86579
-9.74381
-10.1826
-9.33955
-9.86632
-12.785
-12.6928
-12.6962
-12.8096
-12.3938
-12.8901
-13.2309
-12.8606
-12.6134
-13.2312
-12.6932
-12.5499
-12.6907
-5.02311
-4.74087
-5.07245
-4.44033
-4.46533
-4.34287
-4.12887
-4.07491
-4.03731
-4.59272
-4.8972
-4.78383
-3.96345
-4.4361
-4.33426
-0.413657
-0.429571
-0.224511
-0.373546
-0.199791
-0.334185
-0.583746
-0.614474
-0.171747
-0.102579
0.222153
-0.038127
-0.221635
0.113408
0.529385
0.188976
-0.123401
0.258802
0.0628105
0.0452014
-0.0951318
-0.152894
-3.98274
-4.51199
-3.12987
-3.38707
-3.76973
-3.96253
-4.25731
-4.22355
-4.39251
-4.26316
-4.30446
-8.30108
-8.46496
-8.63816
-8.66193
-8.58482
-8.25855
-8.32867
-8.7542
-8.98774
-8.67751
-8.9391
-8.03202
-8.33239
-8.51437
-8.64309
-8.41036
-8.56559
-16.6206
-15.3378
-15.0658
-16.6319
-19.4445
-19.2611
-18.8035
-18.2675
-18.129
-17.6254
-19.0661
-3.93466
-4.33193
-5.06461
-4.88619
-4.51404
-4.76143
-4.26459
-5.07769
-5.02709
-4.57008
-4.40694
-0.215524
-0.130364
-0.354866
-0.447405
-0.145142
-0.126206
-0.416223
-0.156056
-0.452361
-0.576895
-0.537878
-0.229487
-0.453562
-0.914906
-0.78273
-5.0676
-4.02273
-6.30685
-5.17141
-5.00811
-7.39147
-7.77274
-7.41884
-7.75624
-7.76248
-7.402
-8.23257
49.8049
54.5847
43.2405
45.8599
48.6661
50.7302
50.3739
53.2038
45.8607
50.2554
48.4784
49.4915
45.6342
50.0787
44.332
45.8391
47.7418
42.7875
34.6303
34.1779
34.955
35.6903
36.5886
37.5643
34.8468
35.4665
37.9509
41.4185
38.1612
38.3508
40.042
25.9944
23.2255
20.6516
22.2846
26.8912
23.5956
22.1507
23.5493
23.1958
21.3053
28.5701
28.5398
21.6425
23.1874
20.6724
26.8743
28.9776
29.0208
25.0182
25.0032
25.6705
26.9875
-8.97518
-9.32866
-9.59381
-9.56559
-9.68431
-9.08361
-9.15077
-9.30996
-9.40207
-9.06565
-9.53295
-9.07833
-9.26141
-9.15969
-9.36629
-9.33498
-24.7658
-28.1017
-14.2345
-22.6284
-12.8837
-19.8746
-17.5951
-14.6347
-13.0054
-18.0231
-32.4386
-27.5649
-17.3054
-25.0453
-13.041
-15.0496
2.15799
2.00432
2.17252
3.00929
3.3734
3.97986
1.81032
1.48625
3.13708
3.10796
3.98769
3.63859
3.36965
3.29577
3.13256
2.48192
1.75031
2.5527
33.7631
37.7737
36.3309
32.958
34.2743
37.0212
40.5688
39.6544
34.5165
40.5079
42.1921
40.4636
36.5766
33.3584
34.1532
35.2042
26.892
26.2432
26.7454
26.5169
25.6708
27.4571
28.0329
27.4142
26.7831
27.7247
27.1655
26.3463
27.2022
25.6229
26.3074
27.8351
28.3134
12.3155
12.1646
11.8891
12.2572
12.2499
12.3038
12.3723
12.4535
12.4905
12.3368
11.9834
12.0547
12.559
12.2048
12.3196
11.6081
11.607
-3.74682
-4.80054
-6.40802
-5.45526
-4.39438
-4.48924
-3.90817
-3.86831
-4.9405
-4.59702
-6.19888
-6.36366
-4.87993
-3.29423
-5.76925
-4.83959
-4.71357
-5.59446
-3.51809
-3.61957
-3.52708
-3.47198
-2.78702
-3.25445
-3.2986
-3.36573
-2.89402
-3.10924
-3.20786
-2.81395
-2.79699
-3.00091
-5.71246
-5.31417
-6.27912
-7.19447
-7.18252
-6.56214
-6.12607
-6.01239
-5.92177
-6.96728
-7.02674
-6.75679
-6.3498
-5.85902
-6.17267
-6.84382
-7.13019
-7.241
21.3533
17.1107
17.9244
24.6577
20.9707
15.1126
18.0526
18.1708
14.6575
23.0148
18.2024
15.3019
-9.15821
-8.94733
-8.70731
-8.6925
-9.04868
-8.72116
-7.70143
-8.10505
-8.81572
-8.88327
-8.80785
-8.00959
-8.12032
-8.54826
-8.71999
-8.49044
-4.84368
-5.30396
-4.43347
-4.71183
-5.62326
-5.54385
-5.3227
-4.20368
-4.19026
-4.30098
-4.26497
-5.28233
-5.46611
-4.39544
-4.02182
-5.03653
4.70536
3.94818
3.28234
6.47453
7.35837
4.95628
5.65976
2.44153
4.0084
4.68803
6.27031
5.20135
6.25382
7.0566
6.78602
3.73539
3.83451
5.1198
3.22025
-2.10735
-1.10298
-2.07552
-3.59941
-2.689
-1.58697
-3.45321
-3.00681
-2.10916
-2.56871
-2.08744
-3.52367
-2.29707
-1.9436
-0.983402
-0.800937
-0.918063
-1.4275
-1.19687
-1.10185
-1.10214
-1.03129
-1.37812
-0.92338
-1.41534
-0.871068
-1.72615
-0.749549
-0.663634
-0.958055
-0.807764
-1.0397
-3.7964
-4.40479
-3.48206
-2.11126
-2.57838
-6.22586
-3.71983
-3.41138
-3.41412
-4.51538
-5.94448
-6.73039
-7.01801
-7.09491
-7.00339
-8.18445
-8.85486
-8.2345
-9.19014
-6.1999
-6.04064
-8.41977
-9.87468
-9.48234
-8.63036
-8.45635
-9.74511
-8.34751
-8.00249
-8.71573
-8.85234
-7.32578
-9.93839
-9.94788
-9.662
-9.82885
-9.6472
-9.81273
-9.89999
-9.58139
-9.41719
-9.61207
-9.79697
-9.58658
-9.62674
-9.59871
-9.67386
-9.57822
-9.62461
-7.02092
-7.36728
-8.44375
-8.36011
-7.44558
-7.9011
-8.29322
-8.3713
-7.73749
-8.19855
-7.56141
-3.58205
-4.10612
-2.57776
-1.9554
-2.11771
-2.05562
-2.25572
-0.798874
-2.04629
-2.22119
-2.18243
-2.21958
-1.2648
-2.54555
-2.34907
-2.33896
-2.64705
-2.55007
-1.96448
-2.46438
-2.22212
-2.6735
-2.64439
-2.15854
-2.19164
-2.37504
-1.97853
-2.34796
-2.17928
-1.94504
-2.21002
-1.91953
-2.16678
-2.29149
-1.97902
-5.78074
-5.98839
-5.91612
-5.83053
-5.40569
-4.92734
-5.87192
-4.65273
-5.44729
-4.21118
-4.93525
-5.33247
-5.65504
-5.10234
-4.95575
-6.38341
-5.31931
-4.7266
-4.50931
-4.44724
-7.41623
-7.64919
-7.81162
-7.74049
-6.8897
-7.07605
-7.69134
-7.72915
-7.58454
-6.42825
-6.77604
-6.72466
-6.42852
-7.06834
-6.93575
-7.25568
-6.2702
-6.54205
-7.14305
-7.20536
-6.43148
-6.6213
-5.76159
-6.88119
-6.29447
-6.94875
-6.45605
-7.54182
-5.84525
-5.68424
-5.78736
-6.36087
-6.79895
-6.43891
-7.13257
-6.3052
-6.08415
-6.26409
-6.17647
-7.41357
-6.97243
-8.21894
-7.66748
-8.48419
-9.21834
-8.82024
-8.73052
-8.21106
-8.29056
-9.13928
-9.05634
-9.51573
-8.55346
22.3372
22.8637
23.8189
22.8173
23.6215
22.3528
23.3889
22.2296
22.808
23.8058
-9.40535
-9.17383
-8.80849
-8.86427
-9.46795
-9.45653
-8.92563
-9.1217
-9.42832
-8.79318
-9.27259
-9.08668
-9.09712
-9.46709
-9.12615
-9.42382
-9.46316
-9.2774
-8.72503
-9.57601
-9.32755
-9.00103
-9.69236
-8.55284
-9.36818
-8.47925
-8.29788
-9.32779
-9.55487
-8.45625
-9.43878
-9.50612
-8.97994
-8.64695
-9.63916
-8.98951
-8.96355
11.7628
12.1653
12.8702
12.291
11.9578
13.0951
9.66091
11.2451
11.4717
11.1304
10.4198
12.5244
12.0043
12.5413
11.6554
11.2164
-13.7397
-14.7782
-13.8592
-13.1914
-13.3659
-11.3519
-11.8108
-12.428
-13.4505
-14.0983
-10.1378
-11.7427
-12.6577
-11.1684
-12.1823
-10.3511
-10.0698
-10.069
-11.0706
-11.2097
-11.882
-10.2907
-9.84202
-9.59209
-10.7626
12.4308
11.4236
11.0596
11.1279
11.1905
9.69802
9.37216
8.78493
8.83062
9.39686
9.53022
8.60952
10.3906
9.4823
11.1903
11.2954
9.3333
10.4525
10.0685
-9.32227
-9.38665
-9.82866
-9.3774
-10.7102
-9.56095
-9.14389
-9.79029
-9.71673
-9.31285
-9.17101
-9.9262
-10.0511
-10.5445
-10.0556
-9.34437
-9.24544
-10.1677
-9.90508
-5.60259
-6.82887
-6.31682
-5.90308
-5.78826
-6.3299
-5.57961
-5.11296
-6.29658
-6.13054
-6.27139
-5.79926
-6.64302
-6.28087
-6.68051
-6.62581
21.6723
22.2385
21.5688
21.3621
22.6233
23.4983
23.2507
22.3413
22.3743
23.2079
23.3748
22.4581
23.2982
23.8463
24.5119
23.9587
-11.6664
-13.6358
-9.84227
-9.78998
-14.8103
-17.6986
-6.66702
-7.80124
-10.4721
-13.0556
-9.86328
-10.5459
-12.2003
-17.4778
-15.6996
-8.28184
-13.2869
-10.2445
-13.7631
-16.2403
58.2159
52.2664
47.9259
47.5896
56.6939
57.9929
51.5022
56.3088
50.4915
52.4862
50.0669
50.5044
47.3276
47.1929
52.9089
20.6864
19.3701
24.0132
25.6796
23.5187
20.4521
25.8216
22.3757
24.8361
28.0958
27.0292
28.2647
29.9892
27.792
-14.0923
-14.8349
-14.3826
-15.1352
-13.2449
-13.5174
-11.9129
-10.786
-13.1036
-13.0442
-11.251
-10.7884
-13.5222
-11.83
-11.5102
-12.125
-5.10234
-4.80961
-4.8762
-5.02979
-4.80794
-5.12129
-4.75184
-5.098
-5.28083
-4.62089
-4.67467
-4.61702
-5.20124
-5.03344
-4.69869
-4.89988
-4.8394
-5.17709
-4.97791
-10.1746
-10.2472
-9.82308
-10.503
-10.6508
-10.5724
-9.93391
-10.5855
-10.5113
-9.12023
-9.6882
-9.47092
-10.0402
-9.73471
-10.8091
-10.5051
-9.00222
-9.41438
-9.15224
-9.23028
-8.91102
-8.9748
-9.41732
-8.87883
-9.03503
30.5472
29.72
29.7821
30.2273
30.4005
30.009
29.7927
29.827
30.5354
30.3326
30.3915
30.1417
30.2232
30.0018
30.3187
30.3818
30.4065
30.1992
29.8496
30.4744
-6.47151
-7.28081
-6.41043
-6.93365
-6.42021
-6.09359
-6.24779
-7.02284
-6.0324
-6.34629
-6.54958
-6.73047
-4.14311
-4.22449
-3.81907
-3.66995
-3.48643
-4.2067
-4.20866
-4.34369
-4.10006
-3.65829
-3.64525
-3.95507
-4.00011
-3.63789
-3.78325
-3.73514
-3.90657
-3.76011
-3.10495
-2.93429
-3.22378
-2.93568
-3.07455
-3.45718
-3.51771
-3.66355
-3.70782
-2.99972
-3.43295
-3.11396
-3.75398
-3.63338
-3.25876
-3.08989
-3.76978
-3.47106
-3.03923
-2.24824
-2.35757
-2.50059
-1.83759
-2.14217
-1.89467
-1.87601
-2.57385
-2.22938
-2.66668
-2.60495
-1.86843
-1.90533
-2.02855
-2.69278
-2.62217
-6.00217
-5.95721
-6.28843
-6.31275
-6.361
-5.86677
-5.90493
-6.88119
-6.6153
-9.46438
-9.20609
-9.30177
-9.43851
-9.49762
-9.53516
-9.38947
-9.67748
-9.38521
-9.21399
-9.51807
-9.32893
-3.89928
-3.73919
-3.88194
-3.89392
-3.83085
-4.03761
-3.9739
-4.15376
-4.16298
-3.963
-4.42588
-4.36038
-4.29949
-4.40832
-4.24744
-4.40404
30.961
31.1681
30.8965
30.6342
30.2865
30.3618
29.8855
29.8288
30.1021
30.6362
-8.24864
-7.9982
-8.24937
-8.01727
-8.33337
-8.22632
-8.50314
-8.4781
-8.63017
-8.65787
-8.36206
-8.18606
-8.39792
-8.82304
-8.72117
-8.48985
-8.40508
-8.38034
-4.92179
-5.22363
-4.83954
-4.91424
-4.86061
-4.8479
-5.07858
-4.87106
-5.01354
-5.43669
-5.19093
-5.25344
-5.02193
-5.20169
-4.78319
-4.88491
-5.08896
-4.88153
8.88202
8.26621
7.67784
8.65744
6.83225
6.26256
9.28921
8.75787
7.44212
8.96674
7.98446
7.06848
7.84677
7.88238
30.8199
30.7179
30.5978
30.4242
30.8725
30.4661
30.2856
30.3199
30.6268
30.4436
30.6149
30.7394
30.3129
30.2794
30.1685
30.211
30.5896
30.385
30.5305
30.2984
43.5021
42.1518
35.2888
38.3788
27.9267
32.2658
17.7709
33.5081
33.4563
30.8192
36.5774
26.7214
38.3802
43.5515
39.3481
46.8739
28.4378
39.7087
35.2043
-8.53908
-9.03194
-5.47527
-4.07714
-9.79552
-11.7649
-11.5722
-13.7111
-5.11288
-5.13946
-15.6804
-12.4236
-7.17115
-11.2924
-12.59
-7.98787
-8.23131
-13.0517
-10.2448
-10.0805
-0.54083
-1.17068
-1.04557
-1.06826
-1.40545
-0.645011
-1.90341
-1.08757
-1.28701
-1.33233
-1.23112
-1.17561
-1.81309
-0.801062
-1.877
-1.98311
-1.70215
-1.73015
-0.808936
-18.3384
-18.5752
-19.1975
-18.5344
-18.7374
-19.316
-17.2691
-18.4605
-19.1441
-16.9129
-17.6494
-17.3454
-17.9198
-18.5191
-18.014
-18.4294
32.5019
32.4526
32.3194
32.3959
32.6683
32.6855
32.5626
32.5912
32.4016
32.266
32.785
32.5611
32.7255
32.7205
32.3452
32.2676
32.4352
32.6056
32.7366
32.3324
0.161054
0.0125892
0.573737
0.99139
-1.93126
-2.012
-2.44073
-3.29463
-1.21048
0.175464
0.549707
-1.9304
-2.27371
-2.79744
-3.527
-3.41201
-1.10383
-2.914
-2.66781
-1.61146
32.681
32.5734
32.6566
32.6995
32.6888
32.7045
32.627
32.7594
32.8224
32.8283
32.8948
32.6058
32.7748
32.7402
32.852
32.8342
32.7213
-5.62882
-5.5454
-5.67687
-5.932
-5.85173
-5.54262
-5.34761
-5.73296
-5.81747
-6.07217
-5.39338
-4.97621
30.7846
30.5996
31.1468
31.1489
30.9072
30.8507
30.5156
30.7284
30.9473
31.1124
31.1523
30.7827
30.6241
30.7407
30.5386
30.7398
30.5383
30.8011
30.8677
30.5278
30.7699
24.4004
23.963
24.059
24.4746
24.5099
23.6733
24.0576
25.6964
25.8646
25.6513
24.9652
24.6035
24.242
24.1805
24.2054
24.8944
24.7826
24.7885
9.52516
9.78732
9.8642
9.44704
9.71279
10.4163
10.0528
10.0898
9.84274
11
10.8237
11.0727
10.9048
9.97507
9.70261
50.7202
45.6496
39.8198
41.2378
47.5748
45.6778
57.1394
42.5078
49.3586
44.2569
56.7005
56.5076
52.2286
45.4877
-0.801224
-0.488766
-1.04998
-1.63923
-1.4403
-1.78349
-0.864754
-0.938401
-1.27966
-0.950511
-1.80809
-1.37717
-1.04978
-0.515746
-0.746889
-1.26835
26.3514
24.2986
25.9365
24.1393
23.8039
24.1931
24.5135
24.567
25.421
25.8231
28.278
27.7692
26.7881
29.1023
29.6875
27.1073
28.1372
31.9664
31.9284
31.5277
31.6258
31.7301
31.7805
32.0005
32.0371
31.495
31.6111
31.9477
31.9765
31.9317
31.8118
31.7674
31.9336
31.7407
-11.0304
-8.79613
-8.77138
-12.0537
-8.00613
-12.9072
-18.3684
-8.00506
-10.6027
-11.3023
-10.5146
-10.4055
-11.3939
-8.5564
-16.7144
-16.5887
-13.7517
-14.7347
19.1591
18.8201
20.4149
20.0875
19.3927
18.0916
18.4978
20.0367
20.5122
20.12
19.8752
20.1775
18.5122
18.2641
17.6295
19.4102
18.3007
18.9174
17.8819
19.3834
18.687
18.4549
-4.43249
-4.85464
-4.72718
-4.6267
-3.56906
-3.72023
-2.50536
-2.68996
-3.65165
-4.65368
-4.4245
-3.80834
-2.69936
-2.68161
-2.73656
-2.82896
-4.46129
-4.99924
-4.29952
-4.39293
-4.81833
-4.65084
-4.42071
-4.72655
-5.02325
-4.84518
-4.91263
-4.15224
-4.19961
-4.09011
-4.27275
-4.24277
-4.98518
-4.96582
-4.87774
-4.5818
-4.21421
-4.66136
-4.66298
-4.53357
-4.58782
-4.74386
-4.96878
-5.01566
-4.52303
-4.88513
-4.51339
-4.66575
-4.4075
-4.88007
-4.09606
-4.41004
-4.2105
-4.94438
-4.5663
-4.2203
-4.93484
-7.50381
-8.06653
-7.95593
-9.50409
-6.16495
-4.91099
-8.63849
-8.34706
-3.36431
-4.15541
-1.57062
-4.83073
-2.33662
-5.22061
-4.68274
-6.79456
-6.56139
-4.94051
-4.32552
-0.912634
-3.21208
-1.34909
7.56276
5.94725
5.28723
5.77079
6.38222
7.95788
7.84071
6.78189
6.06511
5.21995
5.62796
5.78248
5.41472
6.45204
6.31097
7.38318
6.17333
5.4365
6.09474
-7.34024
-6.90976
-7.11295
-7.15574
-7.28364
-7.32453
-7.51917
-7.81385
-7.33149
-7.90066
-7.41272
-7.24625
-7.2816
-7.21581
-7.2749
-7.23394
-7.27927
-3.90671
-4.10947
-5.59512
-5.05718
-4.86199
-5.12205
-5.36491
-5.04117
-4.43446
-5.26897
-4.62566
-5.28354
-4.95827
-5.00193
-4.0074
-4.71498
-4.68606
-5.23291
-4.15809
-4.72856
-3.7726
-4.97932
-4.68261
-4.99969
-5.0984
-3.64549
-4.45613
-4.77576
-4.63478
-4.01891
-4.91473
-0.171279
-0.447027
-0.165656
-0.0139069
-0.12173
-0.197549
-0.299732
-0.315379
0.0331481
-0.153162
-0.376102
-0.305817
-0.442315
-0.523009
-0.120751
-0.255849
-0.598469
-0.494395
-0.478851
-0.488313
-0.213797
-0.0386045
-0.663904
-0.0414886
-0.273789
-0.213665
-0.464124
-0.616933
-0.284214
-0.442517
-0.234561
-0.092255
-0.0662631
-0.277828
-0.523288
-0.27811
-0.237398
-0.580113
-0.0486727
-0.289839
-11.6108
-12.6865
-16.1294
-16.7967
-16.7565
-17.5034
-12.591
-13.8178
-14.4344
-10.6901
-12.3548
-13.4055
-15.9072
-15.165
-15.0591
-13.7983
-13.3733
0.747191
0.755577
0.360875
1.63903
0.996145
0.127978
-0.138228
1.70315
1.41536
0.462493
-10.9103
-10.9937
-11.5942
-11.8745
-10.9939
-10.987
-11.1814
-11.8253
-11.7954
-11.2946
-11.3721
-11.1416
-11.1353
-10.5141
-10.496
-10.9383
-10.881
-10.8696
-8.39802
-8.35751
-8.51317
-8.14119
-8.57969
-8.21708
-8.34463
-8.17014
-7.89561
-7.95341
-8.66265
-8.73739
-8.43782
-0.621051
-0.36031
-0.728787
-0.430026
-0.893096
-1.0392
-0.739674
-0.217174
-0.139876
-0.642376
-0.902436
-0.693683
-0.203405
-0.116218
-10.3068
-10.1917
-10.7015
-10.3867
-10.176
-10.1211
-10.5522
-10.4771
-10.4181
-10.3432
-10.3632
-10.6979
-10.348
-10.0273
-10.9507
-19.6161
-18.7302
-18.3844
-18.6063
-17.4463
-17.3219
-20.4452
-20.1521
-20.1077
-20.3946
-21.0437
-21.2815
-18.0853
-17.9643
-18.8718
-18.6689
-18.8395
-20.4832
31.5498
31.5458
31.8026
31.1475
31.2623
31.2236
31.3321
31.1522
31.4738
31.4511
-7.54591
-7.60409
-7.60285
-7.8282
-7.51203
-7.80441
-7.47552
-7.56427
-7.37009
-7.44898
-7.49017
-7.75116
-7.81994
-7.60493
-7.84164
-7.46416
-7.60043
-7.62615
-7.43059
-7.59748
-7.66034
-7.60592
-3.2961
-3.30048
-3.41194
-3.29477
-3.04524
-3.19586
-2.89038
-3.08246
-2.83422
-2.87839
-2.1476
-2.33914
-2.54569
-2.5104
-2.28806
-2.01166
-2.11252
-2.44543
33.2137
34.1822
35.4507
34.1455
32.7147
35.1986
33.3797
34.3258
30.6343
32.4948
34.0681
31.2509
31.5814
30.3384
29.0588
32.1643
29.9676
28.8372
29.9126
33.5828
31.4377
30.474
27.9006
33.1859
33.9889
35.3382
34.8044
39.2751
38.4519
35.6446
38.279
31.4745
30.7667
39.1286
40.1671
36.7036
39.4442
32.5588
32.6732
32.7308
32.5429
32.6474
32.5419
32.7164
32.6695
32.5187
32.6451
32.4659
32.5034
32.7205
32.6605
32.6627
32.7181
32.0917
27.9497
27.5306
29.8905
30.9907
32.825
30.7529
30.8341
27.1637
26.488
31.2062
29.0216
30.6014
27.8616
29.9639
27.6936
27.4399
28.7611
29.34
28.1864
28.8678
30.0098
29.8533
29.1177
28.3838
30.0181
30.4311
29.9368
24.6063
24.1447
26.3939
27.7536
15.8727
14.857
24.9681
24.7999
15.6094
17.8256
20.3869
20.2814
22.015
19.4981
17.0301
14.935
30.4155
29.5732
29.9333
30.4469
29.6487
30.9702
30.567
29.7697
29.788
32.6354
32.2031
31.8853
31.3345
30.2125
31.3454
30.7819
31.8428
31.2292
30.5722
32.1238
10.2682
12.1224
6.79797
3.83594
5.02844
7.87761
15.2676
6.90293
10.764
10.7205
4.43984
9.45434
10.182
7.09465
10.0792
16.7092
16.7672
15.2269
13.2262
11.5702
20.5896
17.6973
17.7405
14.9213
18.8757
18.9834
18.9907
16.3206
14.8887
15.95
16.0657
16.8416
17.198
31.8725
31.9168
31.7312
31.6253
32.2849
32.2565
31.8354
31.6765
32.4343
32.4443
31.8896
32.1728
32.4265
32.393
32.2909
-9.52107
-9.35705
-9.85745
-9.76205
-10.2347
-9.24301
-9.04109
-10.8407
-10.4497
34.1657
33.2918
32.2823
32.2234
32.9664
32.3376
34.5742
32.0358
35.7954
34.3505
32.1402
33.9971
34.6377
35.0047
35.4653
31.2504
31.5575
33.3378
35.5086
34.1788
31.7452
32.6217
6.44406
7.15228
6.45645
4.58135
5.5908
6.47673
3.31835
4.57316
4.88142
2.76182
3.96672
2.03142
2.80638
1.70607
1.25758
2.10625
3.32977
4.88915
0.937168
3.78815
30.6572
28.9645
33.7055
29.1512
31.0489
37.4412
34.6948
30.8908
34.6167
30.2582
32.717
38.5855
36.4157
37.1333
40.5409
33.8704
33.1078
31.3915
35.8684
29.8628
33.0506
30.7486
34.6779
39.0742
39.9702
38.1003
-9.28075
-10.2083
-9.96213
-9.37601
-9.39079
-10.2273
-9.58869
-9.18567
-10.8881
-9.13103
-9.4892
-10.2868
-9.57604
-9.04248
-8.94196
-9.34989
-9.45662
-10.2606
-9.3685
-8.77675
-8.73997
-8.76761
-8.75418
-9.52026
-8.94767
-9.44692
-5.04729
-4.78976
-5.48391
-5.95516
-4.94088
-5.16927
-4.84257
-3.64626
-5.55558
-2.97442
-5.5327
-4.39892
-3.9142
-4.61723
-5.54902
-5.50999
-4.89627
-4.67965
12.4716
11.9556
8.48541
10.5302
9.15865
7.17717
3.88012
8.65825
8.93095
6.46687
1.53239
5.33441
6.75117
27.984
28.7703
29.1127
27.7439
29.4063
29.1849
29.5711
28.7058
28.8371
27.8199
28.0114
29.8995
29.2628
-11.2163
-11.0566
-11.8866
-11.261
-11.3152
-11.8331
-13.0144
-12.5272
-13.9323
-12.0523
-12.212
-11.7596
-13.201
-11.5296
-10.1993
-9.97973
-10.4089
-10.8638
-11.2291
-11.3817
-11.6473
-10.3525
-10.6056
-10.812
-10.5224
-10.234
-10.6271
-10.4511
-10.1934
-9.73007
-10.0872
-10.332
-10.4494
-9.85004
-9.59392
-9.58118
-9.44092
-9.8154
-10.113
-10.2218
-10.4627
-9.97733
-9.7553
-10.0434
-7.87961
-7.54622
-7.58733
-7.4588
-7.49371
-7.40096
-7.42447
-7.74717
-7.49327
-7.40798
-7.57436
-7.53812
-7.53806
-8.05859
-3.15245
-4.74544
-4.73823
-3.53513
-4.47772
-4.81373
-5.26571
-3.02172
-3.12094
-3.84481
-3.63042
25.4668
27.0764
26.1598
27.2817
26.533
27.4436
26.5479
25.7858
26.886
26.0017
27.41
25.1713
26.7158
35.4815
38.3324
40.6421
48.9775
46.7579
35.2425
52.3415
51.5429
38.6463
44.3341
36.84
39.066
47.2304
51.1414
53.9605
42.3636
44.2114
40.8389
50.5934
48.5608
46.7677
43.7673
36.237
36.2424
36.2057
34.9162
34.6351
33.3669
33.7738
34.2965
33.5573
32.5695
32.6597
22.4112
21.7461
21.4316
21.0312
23.5441
23.0316
21.289
22.7322
21.9039
20.9726
20.1824
20.4706
22.2208
23.6299
23.8158
20.9837
20.4329
22.7769
19.8623
34.0419
34.3324
34.2104
34.2039
34.9485
34.7812
34.5638
34.3874
34.3849
34.7885
35.5493
35.248
35.6844
-6.3173
-2.23616
0.159929
-3.69141
-1.66921
1.97312
1.77353
2.48947
3.24109
-1.28323
1.04618
-6.3976
-9.6428
-1.28189
2.02441
-4.33983
-2.09691
-10.0973
-5.32056
-10.8798
-3.95869
-8.90637
-8.88904
-8.69489
-8.9229
-8.6285
-8.70343
-8.79927
-9.16344
-8.60039
-8.3292
-8.9748
-8.77894
-8.63698
-8.53065
-8.59927
-8.74161
-8.45947
-8.44159
-11.4788
-13.2277
-10.2878
-10.7361
-9.95562
-12.2447
-10.9508
-10.7657
-10.7936
-10.9785
-12.4007
-14.6887
-12.5767
-12.519
-11.0571
-8.95326
-9.99695
-9.77017
-9.42188
-10.67
-12.8324
-10.3198
-8.39373
-9.08799
-8.83369
-10.9962
-9.58224
-2.95583
-3.24948
-3.50491
-3.49097
-3.77712
-11.9555
-14.1052
-12.6475
-14.121
-18.5909
-11.9704
-15.8084
-19.1611
-18.6393
-23.1171
-24.6585
-20.9799
-20.3903
-21.2938
-16.2539
-0.802307
-0.837534
-1.05206
-1.92994
-1.54312
-1.43756
-1.59388
-1.35068
-1.52677
-1.16678
-0.259523
-1.64623
-1.41593
-0.872763
0.134371
-0.723503
-1.64167
-1.09474
18.5258
16.5564
12.5803
19.5665
6.77613
-3.53305
18.8461
9.23715
17.8301
11.8652
13.2767
-16.2613
-8.43479
-26.8029
7.29679
6.73547
3.69675
-5.84117
1.00255
5.92238
-17.2185
-16.7982
-16.8802
-15.3737
-15.7618
-14.6317
-14.4959
-14.3059
-15.6905
-15.9215
-13.9288
-14.5905
-15.0904
-14.1851
-10.6104
-8.89619
-9.65364
-11.4036
-7.03199
-7.74057
-9.18031
-11.5499
-9.01031
-8.59139
-11.425
-10.1585
-6.26978
-6.97201
-6.22269
-6.79919
-6.87373
-7.14913
-4.84402
-5.92581
-5.08952
-7.74491
-11.1491
-6.30735
-12.278
-10.5709
-12.3432
-11.7604
-1.80377
-2.47745
-2.15214
-4.23563
-6.63601
-7.2208
-9.10907
-9.19196
-3.57478
-6.67983
-4.06581
-4.22652
-0.413063
-2.03376
-2.32887
-2.0737
1.41619
1.17144
0.192009
3.15891
3.20186
-0.324961
-2.59277
0.222087
1.33583
2.91946
3.50028
-1.00871
1.36056
1.07325
-0.371207
0.773686
13.7875
14.415
11.4844
11.9109
14.4784
12.6359
12.1385
12.7555
13.2488
12.7545
11.6985
12.2995
12.4382
11.4884
14.3185
-9.99336
-6.44979
-7.2982
-9.31331
-10.7867
-9.34908
-6.44913
-9.75201
-4.96869
-4.62697
-5.38583
-5.31093
-5.37074
-5.81018
-5.76671
-5.00695
-5.68607
-5.86484
-5.23593
-6.01669
-6.80278
-6.40043
-5.20826
-5.29208
-6.47905
-6.33216
-6.47612
-5.57675
-6.21995
-5.11862
-5.61819
-4.72855
-6.03726
-5.64095
-6.17171
-5.43936
-5.16758
-5.78026
-7.92941
-7.68523
-8.20908
-7.96952
-7.77099
-8.18444
-8.78566
-10.0686
-9.42165
-8.8115
-8.4431
-9.1084
-9.0513
-9.86997
-9.38324
-8.59755
-9.02646
-9.33939
-1.22566
-1.10042
-1.10114
-1.24583
-1.36387
-1.41112
-1.03936
-1.10344
-1.41379
-1.45626
-1.18789
-1.56954
-1.92262
-1.95667
-1.0904
-1.53417
-1.37011
-1.25853
-1.92933
-1.80101
-1.37438
-1.171
34.8079
34.4537
34.9303
34.5605
33.9914
34.6578
35.1732
34.0623
34.1902
34.0864
33.5116
33.2117
33.4328
34.4281
33.9336
33.689
-15.0051
-14.2114
-14.1365
-14.8538
-15.5669
-15.0746
-13.2108
-13.1735
-12.1977
-14.7141
-13.2995
-13.0094
-14.5116
-12.5086
-15.3423
-14.1375
-14.9168
-16.2769
-4.24395
-4.16136
-3.6209
-3.53333
-3.93285
-3.97122
-4.12559
-3.47166
-3.70746
-3.36475
-4.31251
-4.38368
-3.97221
-4.45256
-3.86664
-4.36215
10.62
11.3438
13.0309
11.4568
10.141
12.3428
10.7867
12.7863
13.2968
11.5001
12.0147
11.6629
11.4286
13.0216
10.9091
9.58614
10.9211
9.36837
9.78429
10.7989
6.71186
4.96488
2.35127
2.07465
0.67784
0.546118
4.50331
-0.563145
10.3219
9.04838
-2.19091
3.83029
8.66959
7.24086
0.851022
4.48534
-11.7588
-11.6793
-10.8548
-10.4585
-10.692
-10.561
-10.5078
-10.6155
-10.2869
-9.44921
-9.4045
-9.67814
-3.30553
-3.16705
-3.40447
-2.90183
-3.12513
-3.3175
-3.41959
-3.53965
-2.87708
-2.98712
-3.02767
-2.98924
-3.58239
-3.13982
-2.84726
-2.96732
-3.31546
-7.88154
-8.07744
-7.67556
-7.68782
-7.73598
-8.11962
-8.04488
-7.67822
-8.01342
-7.72316
-7.69583
-7.87053
-8.18546
-8.44908
-7.76019
-8.06452
-8.49607
-7.66552
-3.18418
-5.14838
-4.37274
-3.57776
-5.20671
-5.01155
-2.99839
-3.6619
-5.22571
-2.54478
-2.30341
-3.27046
-2.627
-3.45625
-2.47187
-2.64893
-3.0322
-3.53387
-4.5273
-4.02808
-5.87587
-5.76988
-2.99883
-3.15747
-4.83588
-4.54437
-3.46778
-3.90792
-5.39168
-5.28056
-4.00104
-3.75611
15.7433
15.4093
9.89885
12.7643
14.6608
15.4735
15.3195
14.0049
11.0942
13.9914
10.8363
13.3865
13.2567
11.7898
35.1514
34.7801
33.6663
33.8712
33.8923
34.2386
34.9009
34.606
33.5777
33.7941
33.6673
34.3623
34.1796
34.7283
-1.39273
-1.30151
-1.75184
-1.72094
-1.59724
-1.79823
-1.52152
-1.70128
-1.45981
-1.82276
-1.99969
-1.94246
-1.44846
-1.55171
-1.86813
6.09701
6.54368
9.19878
9.24009
5.99854
7.18969
7.25362
7.74228
8.96727
9.22663
5.17639
5.44883
5.96674
6.57126
7.80962
6.38257
7.2184
-8.28463
-8.02922
-7.7425
-8.30027
-8.75421
-8.11302
-7.45567
-8.11798
-8.10329
-8.7937
-7.86227
-7.70627
-7.96592
-7.771
-7.18409
-6.92796
-7.73057
-8.81108
-7.94418
-7.36768
-8.18594
-6.89824
-8.8861
-7.9029
-8.11849
-8.65658
-10.1986
-10.8488
-8.88958
-8.71363
-8.5835
-10.2072
-9.56858
-9.91519
-9.56027
-10.3085
-9.34992
-6.34066
-6.39852
-6.32124
-6.4086
-6.13805
-6.17795
-6.02943
-6.16576
-6.02774
-5.74011
-5.90415
-5.95674
-5.89596
-6.20712
-5.79879
-5.88458
-8.21995
-8.21257
-8.31899
-8.35832
-7.73323
-8.36825
-7.59291
-8.34233
-8.19622
-8.04544
-7.81718
-7.67908
-6.94993
-7.35832
-7.12796
-7.75014
-7.88264
-7.82971
14.2266
14.2613
13.2536
12.9127
10.1328
8.3297
15.2502
14.4511
7.50387
15.4232
12.9347
11.5621
8.96148
11.67
13.8489
14.4842
13.1666
9.29794
10.5581
10.1305
8.30313
8.29985
9.57168
10.2617
8.9955
11.8553
11.7102
11.854
10.2186
11.5987
10.7477
9.29671
28.7731
28.1479
27.4551
28.491
29.718
28.3956
29.9287
29.9579
28.5002
27.751
26.8396
28.3956
27.2483
31.0769
30.0702
-4.62845
-4.36631
-4.05992
-3.50973
-4.93886
-4.23913
-3.77818
-3.54786
-4.2489
-3.85655
-4.30612
-3.223
-3.49618
-2.8445
-3.21079
-3.64715
-7.57041
-7.44584
-8.31031
-7.44185
-7.5403
-7.61446
-5.94519
-7.50894
-7.50043
-7.85131
-5.80574
-6.20472
-6.769
-25.1044
-18.6242
-16.9224
-11.1064
-25.0831
-30.5103
-6.35466
-13.842
-10.4514
-16.028
-17.5028
-22.2251
-19.6195
28.6868
27.6205
31.5398
28.858
30.2204
31.8018
29.768
27.1085
24.9306
26.2003
28.8264
30.3398
29.3251
20.9263
22.8499
29.1927
28.7445
22.5798
21.057
23.6524
9.72139
9.59205
9.40162
8.50175
9.48687
8.85883
8.54153
9.21357
9.52177
9.47407
9.01848
9.81949
9.60377
9.16785
-2.44696
-2.02409
-2.14166
-2.38781
-2.01973
-2.51262
-2.62016
-2.62211
-2.36049
-2.48579
-2.65712
-2.74864
-2.62816
-1.98686
-2.05814
-1.8767
-1.81042
-2.27566
-10.137
-10.078
-10.0437
-10.3098
-11.2519
-11.258
-9.99509
-10.5761
-10.1186
-10.6378
-9.74955
-10.4381
-10.9434
-9.14897
-9.9551
-9.49059
-10.4302
-10.8042
-10.6646
-10.4769
-3.57992
-3.12912
-2.8998
-3.30424
-3.30353
-9.25593
-8.78808
-10.2698
-9.56072
-8.79138
-9.71516
-8.72322
-9.10239
-9.20883
-9.73477
-8.71779
-9.09277
-8.67025
-8.52655
-11.5108
-11.1297
-11.6618
-10.9472
-11.5807
-10.3289
-11.7819
-11.892
-11.2313
-12.1313
-11.7915
13.1948
13.5412
13.5646
13.2538
12.6832
12.55
12.9819
13.4343
13.9865
13.9765
13.3931
32.1999
32.8409
31.2604
31.1572
32.0167
33.2892
33.8623
32.2305
32.0607
34.5283
33.375
36.1646
32.2209
31.5431
33.3738
14.3707
13.5873
10.6469
12.0169
11.4652
12.8485
11.1774
9.73474
9.92633
11.2254
12.8914
11.9558
13.3347
10.0905
10.581
12.0233
8.44394
8.47342
10.5079
8.01799
6.73776
25.0659
26.0748
25.4874
24.4822
24.9821
24.3261
21.7169
20.758
19.1242
19.6927
20.0417
19.8742
22.811
22.833
20.8335
21.4597
23.7391
40.0826
42.237
42.6612
40.1201
39.2466
40.9618
40.1874
40.8914
42.2252
39.4853
43.1578
39.962
38.9915
45.649
44.2406
44.1277
40.7965
43.8357
44.8049
41.2395
0.329055
1.06423
4.77448
3.63158
10.147
0.867955
2.36612
7.59253
5.64779
8.11971
13.3773
12.7779
7.52044
11.0071
-9.625
-9.56026
-9.47669
-9.3561
-9.50861
-9.59897
-9.38756
-9.25823
-9.37114
-9.19772
-9.23103
-9.11913
-9.14864
-9.06072
-7.32786
-7.01428
-6.93429
-7.26846
-6.8391
-7.27359
-6.88412
-7.35451
-7.08986
-7.21863
-7.09731
-0.0851837
-0.0279854
-0.282997
-0.311995
-0.673687
-0.0557914
0.049396
-0.347631
-0.122244
-0.407953
0.0673066
0.106177
-0.0898577
0.134233
-0.556986
-5.71288
-5.80386
-5.81351
-5.93642
-5.79667
-6.00754
-6.15331
-5.87627
-6.04496
-6.56127
-6.60004
-6.42521
-6.43017
-6.03589
-5.84319
-5.89058
-6.02329
-5.90523
-8.04778
-11.1461
-7.71491
-9.15288
-7.8314
-10.8465
-9.26652
-8.25839
-6.95355
-7.9525
-9.90907
-6.73993
-8.72294
-9.45136
-8.68024
-9.80756
-8.17786
-8.80548
-5.7848
-8.79099
-7.97507
40.8001
44.4536
43.0715
44.894
40.7282
44.9023
45.9849
43.3114
47.2111
48.9531
45.4358
37.3958
38.1787
42.7182
38.0153
4.04521
4.41986
2.43287
2.83642
4.71848
2.9168
5.22054
3.57015
3.46603
2.94444
22.6586
22.6139
23.2713
23.2798
21.8417
23.0901
23.6704
23.5451
23.5845
23.5087
21.0154
21.5506
21.2977
21.8352
21.4936
-18.5415
-18.2651
-19.6136