/*--------------------------------*- C++ -*----------------------------------*\
  =========                 |
  \\      /  F ield         | OpenFOAM: The Open Source CFD Toolbox
   \\    /   O peration     | Website:  https://openfoam.org
    \\  /    A nd           | Version:  10
     \\/     M anipulation  |
\*---------------------------------------------------------------------------*/
FoamFile
{
    format      ascii;
    class       surfaceScalarField;
    location    "14";
    object      phi;
}
// * * * * * * * * * * * * * * * * * * * * * * * * * * * * * * * * * * * * * //

dimensions      [0 3 -1 0 0 0 0];

internalField   nonuniform List<scalar> 
146459
(
-1.99266
2.61564
-1.44692
0.823941
0.77709
-1.26176
-1.50799
-3.1598
4.84738
0.928054
-1.15296
-1.22975
-1.95582
-0.924795
1.60576
1.27486
-0.265306
-1.69051
1.71223
-2.297
-0.676981
6.40361
3.17398
-8.19669
-1.38089
-1.97434
3.39925
4.9787
0.0466813
-2.2721
0.848287
0.499016
-2.42353
-1.53908
2.81099
1.43654
-25.5724
47.342
-24.4349
2.66532
-27.8794
20.1316
-17.8246
28.1483
10.6151
-16.8844
-21.879
54.9075
10.247
-37.0062
-13.9548
-23.1739
9.24929
21.2018
-6.69093
-3.89574
52.375
23.7343
-19.545
-1.10073
-28.2656
-34.9554
40.0472
-10.5444
12.4179
-30.1391
-38.4917
8.40227
41.3477
-9.35666
-19.5732
10.1241
6.22476
24.9989
10.0505
23.0158
-3.65227
-29.414
0.596127
23.5431
-14.0887
16.3984
7.29901
-0.681702
-9.73889
8.93434
17.203
19.8366
-17.2353
4.69772
-11.0642
22.2779
8.62279
28.598
-17.1833
31.9972
-43.4119
15.4558
3.40337
-9.59545
23.6329
-13.4413
-30.4311
17.2859
-10.978
-3.5958
9.81749
-25.0368
23.8115
16.6811
-9.71858
16.679
34.3823
3.73506
-14.3059
10.4898
9.54726
-3.44714
-4.22783
0.711648
6.96332
-6.12527
-3.82251
6.50063
7.2845
-6.80312
-4.70921
0.585674
4.30671
2.39211
7.6332
3.63207
-10.6796
-18.3818
-17.7597
20.7213
15.4202
-18.1075
22.0975
-4.07966
0.0896699
-5.29528
-0.362758
-12.4494
-15.88
-1.48746
-1.01432
-11.9083
-5.50171
10.8924
6.51768
-4.02159
17.5955
8.52354
-16.1972
-3.01576
15.1333
-15.2122
-6.28035
-24.3349
4.51191
15.8014
-17.0866
-7.61103
3.03326
-17.4686
-3.32443
-8.87506
10.3737
-11.3635
-22.0297
-11.3188
-8.36335
-2.29374
18.0834
-7.42634
-8.15214
-0.7481
0.536895
-11.6914
21.6016
-12.2039
-8.44397
0.697296
-0.405466
9.33927
-1.08203
1.16845
-9.42569
-5.41203
6.30732
3.13789
8.97838
-8.92639
-3.18988
-5.61284
8.75074
11.0249
0.415933
-12.5228
-0.798147
1.51288
8.26364
-0.351717
-11.3064
12.8266
1.27994
-9.79039
-13.8729
1.38336
-12.9447
0.0858731
-1.1314
0.297931
0.747595
-0.813258
0.0833462
0.815785
-0.202683
-0.52858
-0.0819951
0.0759371
-0.167888
-1.03945
0.764945
-0.605662
-0.325112
-0.543219
1.16626
-0.592835
0.0650395
1.46702
0.0846205
-0.352407
-1.19924
0.0307293
0.69738
0.738915
-0.28534
-0.21251
0.378812
-0.579532
-1.43609
-0.431906
1.32478
-0.672445
-0.931534
-0.188424
-0.0369979
-0.206484
-0.402447
-0.213111
-0.969722
0.510388
-0.602515
-4.19421
10.36
6.80298
-12.9688
-1.93054
-17.2699
5.58221
13.6183
-16.3813
10.2566
-9.8651
-23.7862
-6.44743
16.0862
-9.63872
-12.2922
13.7796
4.09484
7.87958
-24.1531
6.40842
-10.8601
9.01579
-6.4173
2.46313
-5.06162
-0.616238
5.5868
4.04522
0.13755
-1.26043
-5.29442
7.95834
-1.61445
-6.20634
12.1908
4.96777
-9.20024
6.44633
5.12824
-6.9096
9.37272
0.327623
6.9139
-8.50195
-9.55529
8.26847
13.2405
-8.27277
0.00430305
-6.54106
0.868061
-6.30077
11.9738
-8.99367
-4.62173
7.07433
6.04713
-7.00307
9.86305
-8.90712
0.150144
5.89699
-7.50423
-7.40525
15.7775
-0.301976
-9.27486
0.58317
-6.60275
-4.18194
-10.6564
7.33408
-10.7612
1.95751
-0.0513736
-8.67378
-2.03602
-7.63568
-1.69056
-4.54906
6.4526
-9.53923
5.49589
-17.048
10.768
-0.341143
-0.563763
9.2597
9.99921
-13.1771
-0.998295
4.42185
12.9095
-9.91032
-7.42097
10.6849
0.440696
-6.70374
4.43719
19.1572
6.52429
-12.0481
10.6632
-5.13945
-9.9528
20.9143
6.22019
4.92436
-23.1548
12.0103
4.72224
-10.5501
5.23056
-10.2165
16.8798
7.04013
-15.5052
-8.41476
-5.66345
16.2945
6.24873
12.22
-3.93714
-13.9463
9.45831
-0.400562
-2.01762
6.79837
18.9544
-2.23645
10.8849
-9.04903
11.0881
3.21514
-2.08325
24.0065
-6.12002
-6.53622
-7.79372
-2.0867
16.4166
-12.9056
-9.02394
15.3934
0.0283501
-7.82207
-12.8998
0.0225066
-1.15761
-24.5525
16.6861
6.56763
-19.6486
11.9234
-8.06723
12.5482
-20.4935
-10.1483
22.5746
12.5808
-27.886
-5.18838
2.43255
-3.13726
-18.6933
-2.72195
-12.4123
-3.6248
-5.38951
-24.5844
-13.7575
-10.8949
-6.90683
11.7148
-0.943362
-3.29885
-7.47259
-5.34216
0.126195
5.01862
0.197344
5.55628
-13.4194
2.52097
-9.41819
8.55902
0.985364
8.99931
-12.8612
-1.48322
4.03194
9.16607
-13.4982
4.69367
7.32132
-0.950979
-2.42891
-10.1183
7.43979
-3.36454
11.1961
-3.14778
7.01974
12.7354
1.29233
10.1794
13.0057
0.0913346
-6.23304
8.27251
-2.1308
-8.46286
11.3047
-2.75052
1.32461
-16.0205
-15.2465
-1.37146
13.7221
2.89581
11.9224
-25.8442
10.5509
16.8727
7.76582
-16.366
-7.57185
8.53683
15.9077
0.193968
1.19457
9.21809
0.892052
11.6643
3.25245
-0.0309423
17.7859
-10.7449
22.3782
-5.83347
5.23144
10.4076
-9.80559
-8.0349
4.54592
-2.34449
-16.9435
5.52848
3.38017
-6.14727
-9.36716
20.7459
5.87771
-7.47906
-4.04427
-5.32289
-3.85672
1.64504
-16.7654
18.9771
20.5824
-21.2902
-3.14891
3.96995
13.2054
3.40703
16.3724
-1.74178
-12.9856
5.3255
18.8601
-7.81322
5.80617
11.8308
-13.667
15.392
3.93969
-19.2096
-0.122128
-2.09358
17.4856
-13.5912
15.7892
-1.38791
20.6911
-13.9777
19.248
-14.8297
0.823176
6.1084
9.68205
-16.6136
4.45843
6.79459
-10.4298
8.26037
7.15216
-10.9541
-2.9259
17.7772
-6.59097
11.5493
-8.36679
0.0495508
6.74504
9.7316
7.60738
-12.3993
9.40466
-4.61278
-2.54466
15.6014
-5.44937
0.158996
6.99316
0.991934
-1.8419
10.7235
6.90403
15.0829
11.8785
10.0779
-4.90745
-17.049
-4.53651
8.80333
7.61167
5.54141
-12.2095
0.666749
18.0552
-6.51244
-6.78924
3.38303
-6.31868
11.8601
-16.5699
-4.83959
12.3352
9.07419
11.1583
-6.74335
-20.9848
15.6782
-9.06488
-15.3682
8.75481
1.62351
7.84787
6.20685
-6.0258
18.5526
-20.7157
7.93296
7.14204
2.50046
-17.1177
7.47518
6.51077
11.5336
-10.9023
-5.85831
-17.5234
6.0395
17.3422
-21.0578
3.64954
11.5499
-4.92103
-6.1033
-10.0334
-14.8615
-7.58291
5.62156
7.05199
-10.1731
12.1323
11.6051
-0.104162
0.0326017
1.35411
-5.07828
-6.69425
10.4184
-8.91846
16.3121
-11.6763
10.2475
12.5399
-11.5912
-3.9684
6.65509
-10.6626
-1.46968
2.33331
-5.18313
-11.3827
10.0624
6.50343
-10.213
5.02989
9.25742
-2.36051
8.91255
-15.8095
-0.955599
7.5014
-16.2852
6.4233
7.09802
1.90407
-1.50069
-0.643682
-7.41895
0.104365
7.95826
-9.09793
-1.36333
9.81758
14.1149
0.543664
-3.51143
-11.1471
14.9343
-9.91731
-1.92644
-1.27652
-0.275422
-6.27629
0.488884
6.06283
-9.2821
9.00668
-4.0986
-6.97655
7.69061
3.38453
8.60195
-12.7006
-9.11599
-0.166105
12.7147
1.10631
0.443408
-14.2645
-0.151925
12.8667
0.917373
-8.92705
8.8163
0.905622
-9.27852
9.40297
-0.738588
1.12967
-8.09101
0.685057
3.55609
-6.26802
-10.8091
7.9398
-13.0312
15.9005
-10.6333
-0.175761
-4.79829
17.7293
-4.9912
7.33952
-7.65725
-9.38975
9.70749
-3.82618
11.1657
6.14848
11.153
-10.2108
-7.09068
-4.48481
8.31098
-5.40029
-10.5679
-3.18747
1.30927
7.15184
13.8496
-17.3029
-3.69856
-11.7298
14.0834
3.57539
-19.1865
-13.6309
-1.28642
-19.4938
9.43837
-0.898887
5.33611
-5.95373
1.51651
-8.92833
8.02944
-7.70501
0.286869
-5.05337
-5.74197
-1.96304
-8.07292
10.6173
2.34374
-21.8893
3.4344
1.22913
-5.78545
0.0434759
-10.1017
6.65999
-1.82388
0.795507
-2.70605
-0.542097
-1.28178
2.66531
-1.25072
-3.69173
2.27714
1.34763
0.42629
0.89139
0.784959
0.0839778
-2.11966
-0.587716
1.37268
-1.89646
2.23457
-0.925831
2.79827
-4.61075
0.830578
-1.2205
1.26299
2.19209
2.23562
-0.657856
-2.43538
-0.972668
1.14788
0.136432
-0.457905
-1.44012
1.7616
-0.189575
0.0667123
0.259294
0.253494
0.040007
-0.288254
-0.00524729
-0.525754
1.41209
-0.632844
-1.27011
2.73875
-1.99439
-0.284719
-0.98539
-0.0949302
1.35062
-1.7136
0.806502
0.61706
-1.38356
0.184178
0.432749
-0.332341
0.421588
-6.37477
6.16551
-18.327
18.5362
-22.2802
2.99634
12.9091
-2.51008
-10.7467
-9.02341
17.9231
-11.5256
-8.90755
11.4792
-6.01802
12.4619
-4.59395
14.8404
-4.08094
9.88158
10.6965
-2.51928
-19.7028
4.67847
-16.5953
-0.774166
-0.957476
-7.88012
-19.4619
12.5405
-6.87547
7.35182
-13.0169
12.7921
-1.0258
-2.24776
6.92624
-17.2749
-5.10406
8.79667
9.09953
-1.612
-0.0874918
1.20143
0.498062
2.17942
-0.442189
-3.34924
2.09193
-0.014508
1.78036
-2.20804
-0.704856
-2.39367
-1.31512
4.41364
-0.579927
-1.1956
1.07068
-2.97359
0.565119
1.14462
-1.72425
0.570947
0.898692
0.881664
0.728197
-14.2234
13.5338
-13.9314
14.621
2.47218
-3.56665
-13.1289
3.62505
11.6899
-20.36
5.04513
5.87846
13.8302
-16.0836
-5.18575
7.65793
12.9541
-6.39564
-0.679981
-0.368662
0.325477
12.9973
0.0577008
13.7725
11.7476
13.4038
6.56182
-7.2575
-16.1414
13.6359
9.76298
-12.4014
5.39006
-0.246131
-2.91192
-4.12246
-9.107
-5.1561
-10.1573
8.28759
-8.12941
5.23187
-3.26445
14.1074
-12.4552
3.53032
-5.1826
-9.33747
15.8663
7.57859
-7.48413
-5.97579
-16.0068
-3.93247
10.788
-7.25765
-10.5879
-4.47025
6.92874
-11.0458
-4.69816
-11.7279
-1.88025
-2.07609
0.0120597
3.94428
3.85392
-1.85481
0.0352172
-2.03433
-2.30434
0.550182
1.35744
0.396714
-1.38258
3.3159
-1.93331
1.045
-2.42759
-6.47438
0.749525
19.3207
-13.5958
4.35306
-11.3766
0.549113
-13.0066
-6.01646
19.7726
-10.5388
-5.41656
2.94869
13.9807
-10.9122
-15.4971
12.4285
15.4909
-7.52659
-24.0598
2.60888
1.36314
2.81374
-5.41873
1.24185
3.67122
-4.40836
2.10028
6.63179
-5.96169
-4.92259
4.2525
0.610997
5.56817
0.452619
0.521853
2.90289
0.720734
3.47234
1.1778
-5.17523
-1.42129
-3.01186
-0.218712
-0.471642
-3.87692
5.48894
-1.14038
-1.74392
1.99301
0.838523
0.224324
-6.23808
1.10598
-3.27931
-2.67604
-6.54159
5.34071
-5.64297
1.22301
1.17857
-6.91594
-0.847158
-0.80641
-4.88802
-5.38415
-3.709
4.08116
-7.89081
-5.19206
5.42078
7.66208
-0.81642
-2.37067
-4.70372
8.3669
-4.27603
-4.90729
-4.64508
5.03372
7.97826
8.42541
-4.20525
-8.49619
-0.484476
4.2648
9.79851
-3.55277
-8.61641
1.4377
3.16875
10.6361
-0.18163
-7.62104
3.42755
-1.05236
-10.7739
-11.6192
7.0141
2.88807
-6.37296
1.6993
5.3591
-7.81491
0.756514
-6.1342
3.9783
3.8552
-14.5384
-0.370794
8.00745
6.90176
-5.24094
-0.870741
-8.42674
8.39265
-1.3934
-3.04523
-3.95402
-5.08445
7.3429
-10.1397
4.68443
-5.31839
-10.0622
2.38506
-3.10732
6.08136
-2.6571
9.02047
8.50788
-4.27111
-5.63016
-1.95484
2.64781
-11.9261
3.94021
0.0640012
7.92192
-5.6028
-7.19407
9.29055
-1.46532
-6.8983
6.55027
-2.71698
-8.10439
4.19887
0.396551
-5.01235
1.72753
3.34883
-4.84374
-5.77141
2.81908
-9.02605
-15.2021
12.5437
15.4262
-12.7679
-2.45349
-17.5589
8.63904
11.3733
-26.7169
10.1844
14.079
9.1295
-13.4687
-13.2197
-9.84717
-7.74023
0.511557
-12.3486
-1.11749
12.9545
-0.942467
11.3005
-9.84643
12.905
-13.6367
-0.21077
-11.3814
10.1537
9.86674
0.598268
-1.72449
-14.0758
-16.1403
15.6426
10.6821
9.72219
-11.8904
15.9661
-12.9083
-1.06093
2.20251
-2.37672
-1.32397
17.8282
-14.3017
0.00405816
-2.14701
2.16424
-0.0212867
-0.242372
0.246431
-2.15437
-1.2405
-0.00534994
3.40023
-2.39675
-8.63706
-2.43654
6.08892
4.98468
0.20489
-1.49398
-7.34797
3.64887
-2.46708
-3.57853
-0.22501
2.63337
-6.80446
3.96304
0.404882
-1.13114
-5.46843
0.234482
-0.443302
0.455251
-3.04367
-0.165349
2.32424
-4.40436
-0.435488
6.2994
3.3622
3.90991
8.45051
-15.3343
2.97386
8.65766
-11.9473
7.19958
-18.7801
-5.69664
11.4855
12.9912
-15.948
0.102822
-2.93492
-6.46542
-12.2239
17.1764
1.51294
8.35425
-4.83583
-9.98384
7.79101
-7.49478
8.15428
-0.192969
16.6416
-9.39299
-1.52384
-1.03049
-16.373
11.0855
8.65758
-24.5789
14.9702
-16.1086
7.53671
-14.8271
0.316225
17.8076
-2.73466
10.514
-5.10832
12.402
21.8066
4.57327
3.90689
-7.11242
-5.41088
12.4496
5.47276
-8.25295
-9.66944
3.71182
4.87202
3.86578
8.69572
-3.30407
-1.48476
3.42705
8.43742
-1.24426
-3.72688
8.3982
-2.59482
4.23863
-5.05577
-12.9387
6.37524
7.5421
-9.55111
5.72083
9.13808
-2.19554
-1.46978
6.97731
7.03279
2.89533
1.48716
6.71055
-10.2188
-2.6364
-0.910835
-17.5609
-13.079
-4.05762
2.09168
23.5293
-21.5634
-17.4732
0.198745
13.2169
-15.4783
-3.6352
1.64024
-1.80931
-12.7989
16.6999
-8.62736
7.0168
-7.41669
-11.5262
3.46467
11.2942
-4.53294
-14.4755
7.71423
18.2952
3.13393
-10.135
-7.68238
13.1787
7.71221
9.781
-6.8537
-10.6395
15.0159
-7.61092
0.307195
-19.5838
8.48987
3.41153
-6.66886
-14.2735
14.136
-2.89275
-4.64353
-10.3841
-16.0302
-10.2902
6.641
6.09284
-2.44367
7.71927
-12.9702
-5.03922
-10.4099
13.3416
3.0325
-5.96416
11.5643
-16.5324
-5.44181
3.01029
0.0516702
8.50234
12.5543
3.79763
-14.0081
14.2943
6.35477
0.0905542
-6.37937
7.64243
16.2451
-17.7568
-6.13074
14.7582
-7.02522
12.0258
-2.90044
1.97599
10.7604
-0.182145
16.3677
-4.90197
4.77934
15.6724
15.4535
1.58067
12.4211
0.949607
16.5868
-1.86401
16.8246
-8.16038
-6.89466
2.62695
12.4281
-8.99387
-2.94291
3.77641
0.920631
-10.6686
0.754074
11.401
-12.3269
1.84655
5.52224
-9.72519
1.26005
-0.277763
4.78407
5.94437
9.53242
-9.95455
-5.6844
14.2557
-5.66158
-2.86806
-1.19555
3.51468
-7.6028
-1.57346
2.74816
-9.90206
-1.51273
-8.06599
-3.9959
3.10543
-4.79392
-3.75346
2.59311
8.70244
-7.54209
3.29598
-3.63572
-3.41373
-2.30428
5.07074
-5.63453
-7.78569
3.51202
-6.00244
-12.3039
27.0571
-6.81429
-7.93892
5.06295
-16.4823
-0.884542
5.34162
22.4588
-22.7374
-0.558736
30.0942
-6.37605
-23.1595
7.39173
13.9209
-34.6591
13.3465
22.0253
-17.2424
5.03653
19.7564
2.26416
20.693
6.80229
-2.50966
18.4166
4.78607
17.2066
2.30897
16.2833
21.2027
-8.31198
-8.67745
35.406
25.178
28.5546
-17.4756
7.92423
-1.90044
-10.4683
4.44449
-10.7468
16.682
1.98903
-12.5922
4.51927
-1.55106
9.62395
-5.31599
-12.7331
19.9293
-1.88022
14.8583
-6.81064
-13.3637
-1.73822
4.00437
-11.123
3.66512
5.55748
19.6962
-19.3631
-10.8014
-9.76889
18.7183
-7.14236
4.63117
0.772972
-2.64477
-11.3082
-5.46834
-1.02354
-3.46433
-5.89711
-10.0017
-16.4155
8.62933
-1.98272
-7.49638
-12.3835
-4.28181
-7.08365
-2.75253
-10.8887
6.14481
-9.6791
4.04306
0.361469
1.67683
-7.18336
3.81249
7.41394
1.0291
0.808008
4.52493
-0.0783629
-1.62749
3.56829
1.31811
-3.22803
-0.877669
7.9182
-3.58106
1.38212
8.01048
-4.75417
-0.91169
-2.34463
2.81514
7.61988
-2.42454
-1.4837
6.86008
-1.15059
5.50576
-0.859011
-11.8221
-2.73829
15.4194
-8.72302
10.2111
-2.34712
-14.0363
6.48653
-2.26067
9.81043
-1.61128
0.0519589
-7.16369
-2.25964
-11.1737
-10.1858
9.95898
-2.51151
-12.1717
-1.8545
11.9048
2.12144
-5.91492
-20.2931
-3.75151
0.0522916
-6.74223
5.90474
11.0007
-10.1632
-20.1154
-0.615951
13.9891
-6.94542
7.8412
-15.3124
14.4166
7.12434
-19.9847
-12.3216
-3.26429
11.8344
-5.84849
-6.42571
-11.0458
0.754003
14.1425
-4.30953
-10.587
17.8139
-4.78004
-12.2799
-5.18791
16.3611
2.96927
16.3822
-3.75621
-3.44094
11.9288
-13.2679
2.35483
8.03084
-13.8266
0.0346879
-12.7582
1.57499
11.1485
-7.19185
0.759622
6.46691
-2.17939
6.91635
7.1407
7.06211
7.23801
16.2638
8.21471
-10.1694
2.33286
-7.0602
-6.06646
8.64136
4.66311
-14.0149
-3.14676
11.0952
-3.46737
22.1983
0.206416
-4.94935
-17.4554
13.9107
-1.35737
9.64501
5.15816
-11.4339
20.1864
-3.80007
17.6022
-8.11984
-5.68227
21.1519
-12.1399
-12.812
-22.6033
29.2976
-6.48785
-5.47207
-13.1682
-3.96304
-7.88055
-1.67424
14.713
-13.4755
4.23753
-8.59806
9.68452
16.5157
5.88869
6.66514
-16.1265
8.53976
-5.43603
-19.0783
8.38782
2.25792
-19.8339
5.74246
-11.6044
0.461357
17.4023
-17.1886
6.86849
10.7815
-16.9182
14.8788
29.6713
-25.6699
-22.6743
18.6729
-1.87467
16.0898
15.4562
-4.2257
27.1849
-10.6903
-12.2688
12.3793
-24.3251
29.6414
-17.6956
-16.7115
3.42101
15.1898
-32.0917
15.0272
6.95993
10.2218
-41.5068
-20.1464
10.3948
-14.3492
25.3133
-0.468915
13.9682
16.2591
-29.7584
-12.3354
9.8851
29.0366
-26.5706
7.75585
-26.8404
12.0223
-10.1393
45.7017
-28.0653
-3.37462
-14.2618
25.2838
30.0367
-9.61879
-21.4901
28.1984
-19.8494
13.1411
-36.861
-12.6945
46.8533
6.62897
-5.11466
-31.0643
-0.681995
13.0437
8.86612
-41.7592
-19.8069
-20.224
25.4831
14.5478
-15.4626
2.95931
-7.30363
24.1584
-30.4981
25.585
-19.2453
26.4526
10.7495
-3.94886
-26.7606
25.5948
-2.02112
-34.3399
5.86292
-24.6764
0.421789
4.03065
-23.0997
-17.0393
21.4933
4.51345
31.682
16.264
-29.0697
3.96554
9.11524
-1.59554
-11.4852
-11.9942
11.4824
4.47736
5.73507
-12.8167
-4.91261
-8.74363
14.7243
2.15453
-8.13525
11.2969
-16.5933
-3.44722
-4.52577
-2.44806
18.4563
-3.72348
8.31295
-1.07699
5.64781
10.1535
6.49643
11.4048
-3.51521
14.6046
-6.5936
-0.25386
2.66104
4.18643
-3.69272
0.105874
-3.00675
2.3983
-1.60913
-4.48189
0.859601
1.28484
-0.444817
2.40244
-1.09802
2.42015
-1.21498
-1.64998
-1.25971
1.61662
2.04552
1.2659
-0.105462
-5.05395
1.9718
5.74319
-2.79131
-2.15677
0.567508
1.44024
-3.61689
2.71939
-1.27892
0.17761
-1.61807
0.878737
0.632367
1.20829
1.52744
-2.17491
-1.71166
1.37726
1.21314
-1.46315
1.02228
1.62088
1.57607
-2.92713
-4.04488
2.55574
2.12151
-2.2912
4.63097
-0.103426
-9.67594
-10.3628
24.2489
-4.21012
-15.2796
-18.1983
23.802
5.85375
7.91024
-0.178021
-13.586
-0.287107
-9.13879
6.5009
-8.9535
-12.7626
1.96064
25.3527
-14.5507
-0.904785
12.391
-6.37722
16.4794
-10.3893
8.50786
-15.0631
8.27786
-16.7452
7.56258
-6.17752
-7.37682
15.515
-9.22985
11.3302
7.93955
5.56009
2.97976
-4.24818
-5.99613
7.39713
-16.8385
0.211521
7.95986
-12.5788
5.82387
-4.06387
-1.89551
0.135514
-1.52026
8.39876
-1.05463
-1.05377
2.56403
-5.91107
4.40082
1.40373
-4.5071
2.0496
7.2839
-8.1656
-3.18217
8.32767
3.8748
-2.62974
-4.69712
3.45207
2.29409
2.98443
-0.902508
-1.2798
-3.72877
-3.37648
-2.03313
-6.25145
0.245225
11.2585
8.05841
-4.37546
-14.9414
-1.13752
5.44445
6.95155
3.32047
3.60042
7.206
-0.166645
-3.71888
2.67415
5.18366
-12.2333
-12.1097
2.43282
16.8828
-2.39807
-0.320225
-9.39137
4.11888
-7.44844
6.00371
9.28673
3.01552
-7.1186
4.24993
10.4812
10.0969
-10.3266
-2.16833
16.7796
-3.19222
18.8906
14.9412
0.463286
-34.2951
-0.0542978
26.2966
-7.35165
-41.4197
10.1698
15.9383
15.3116
2.39603
-14.6568
-29.159
42.7666
-12.2387
-28.1318
28.4807
24.4557
42.8176
-40.1152
2.67957
28.5675
11.5705
-11.9512
16.4676
-4.57075
9.66492
-21.1528
-28.2663
21.7953
9.1505
14.0711
-16.0408
18.2066
-23.1984
13.9748
43.0734
11.9981
11.5547
-5.3462
20.7614
7.17504
-17.4802
8.96732
30.3082
-9.41122
6.00205
-13.0201
11.1972
22.5842
-3.83211
2.36676
3.22429
34.1394
4.85865
6.78157
-27.2014
15.5612
10.6372
26.798
-32.5765
0.461975
19.8427
-13.5231
32.0525
-20.9534
36.9033
-16.0972
5.99187
46.6713
3.01437
-22.0485
-27.6372
22.2418
18.055
-20.454
23.6615
32.0758
-23.6848
46.1811
-0.277836
1.14216
30.2713
15.2578
-45.2376
15.3386
31.0412
-18.4139
18.1176
-44.9412
33.7299
-12.6606
-3.2735
15.1797
20.1696
18.815
24.0926
12.5352
-4.76978
25.9645
10.96
20.3902
-18.5797
32.0811
1.83712
19.0979
-0.608529
15.698
0.028285
16.7263
-3.95231
-12.8023
-4.76727
20.7507
-15.9551
-3.20687
21.2955
-22.8559
13.0176
0.911077
-17.1355
6.05386
13.4905
-2.81805
21.72
5.08456
-4.86541
14.0703
3.81269
18.501
-2.07088
12.8124
-15.8536
-17.7977
-13.8663
10.5335
21.1306
2.84109
-19.6635
-0.975371
16.4213
3.89633
-1.03132
13.5563
14.994
1.04852
5.67745
16.4484
-23.2994
-1.19141
3.77344
0.516948
13.9129
3.03819
10.9245
13.4681
6.08143
9.80174
3.07713
-6.83869
10.3938
16.4311
-5.45322
8.34669
-8.17386
5.28039
-0.248466
-3.70404
-1.50071
-9.94568
8.6574
-8.00896
9.29724
-3.14946
-12.4671
5.67084
-6.29844
10.8454
4.11041
-4.84115
-1.70576
-6.85823
2.14244
-7.83029
12.5461
5.12931
-1.14209
-2.31766
9.5894
-6.65877
12.6878
-12.9467
5.73216
-0.959304
-9.69229
-6.95847
-9.46166
1.47106
6.75236
-0.482455
-0.660552
-5.60935
17.6357
-18.7137
-5.836
4.90939
-0.171819
-6.14664
8.55538
-6.76031
-7.47701
5.68193
3.84377
1.91893
2.79267
-8.97351
-10.8552
6.99249
12.8362
1.77958
4.48376
-13.0236
7.58391
-14.7778
-9.6836
6.21578
-6.62133
10.0891
5.72509
-7.82477
-7.71569
3.20405
1.90913
2.60251
9.17807
-12.41
7.06923
4.99943
-2.89059
4.93647
5.33681
1.92871
5.70551
-8.98924
10.3285
3.5972
-0.146034
-5.226
-3.09272
16.3714
-8.05268
-26.529
1.06266
14.0793
11.3871
-1.66176
-26.2606
1.39335
-16.038
-2.54179
13.3538
7.92671
-0.845951
-23.1188
-20.5662
9.91267
11.7162
0.112115
-22.3401
-5.43393
12.2539
-17.9172
9.94147
-19.2393
1.43421
18.2943
2.35212
0.852413
-21.4988
7.86921
11.9074
-1.4823
-6.98945
-4.60504
6.27159
5.32291
-13.8292
-8.6087
15.4485
-12.9755
13.6646
7.18006
2.07638
-12.6998
-13.3432
11.4214
2.19662
-14.6874
-4.5872
18.684
-0.432154
-3.41553
-18.1292
16.9397
-24.5205
3.02073
18.0842
-2.18903
-26.1369
3.80546
-20.9874
0.669169
-16.7726
15.2062
3.46247
-22.2533
0.285206
-22.9597
-14.411
-17.269
4.00691
13.7345
-0.472392
-8.24531
5.296
-14.3197
-1.53668
6.47627
4.87356
-9.81315
12.2119
5.88912
-19.6377
1.24068
10.9435
0.027696
7.1339
0.583048
18.6178
9.03228
-15.3586
-12.2914
11.8246
7.80862
-1.01546
-16.6344
10.749
17.71
-5.3784
-2.22367
9.19927
-12.571
11.004
2.20218
6.7418
-3.90202
2.45621
16.0294
4.44689
-14.8041
5.33457
-10.4171
4.21767
16.9484
-4.85201
13.3675
4.77044
9.06405
16.1759
-9.21058
26.6492
5.13005
10.1154
0.62813
-15.8736
10.3262
-11.7514
6.55528
-4.71518
1.16278
13.8786
-2.8105
8.21073
3.50404
-0.367606
-14.8878
-8.71063
-3.37621
13.2496
8.44734
-4.07827
2.64477
-7.01384
5.64923
8.02044
-4.32094
-9.34873
11.4907
2.78264
-8.62407
0.725717
12.1111
-4.81638
13.2122
-4.03911
-7.59711
2.39052
2.60264
6.07753
-10.4968
9.72326
-6.67886
8.29313
-1.0638
6.50549
0.663978
-4.92077
-2.2487
1.54576
2.959
2.00074
-3.95096
2.41102
3.0857
-1.05222
-2.23476
4.26672
7.00438
-8.3121
-2.30753
8.1797
-3.46116
-3.78723
9.25297
-2.86661
-2.59913
1.99551
-5.52876
-0.253984
3.19746
-1.82776
-2.42192
-5.47835
6.36828
3.05132
2.20327
3.99838
-6.55468
4.12765
-6.38692
-6.87784
-4.98897
4.70733
7.15949
-9.14676
1.01233
1.25659
-2.43199
-2.95155
0.394564
6.88533
-8.49552
-0.821798
5.9077
-8.62977
9.6074
-6.47073
17.0858
-4.41561
-7.6827
7.14296
-8.88284
2.75222
-5.60432
6.27655
-8.46698
0.0333849
-0.0619234
-4.14708
-10.087
-8.98101
0.0984699
-0.000297465
13.4408
-0.348518
-11.3711
-1.72119
16.4898
15.6594
-19.8393
-12.31
4.05017
10.8841
1.55553
12.096
5.39498
14.4082
2.97973
-1.72852
13.0667
12.2256
23.9209
-12.1764
-3.65059
-8.09399
0.475479
-1.908
25.3535
-15.0402
-0.664016
16.1797
-15.1205
22.6278
-14.7254
-11.553
-1.11823
21.838
23.1802
-17.0012
-6.45374
0.274777
0.606545
21.4554
10.8157
-13.4984
-14.3185
15.5381
-1.74264
-1.07557
13.4783
-6.45176
-14.7274
15.0691
13.1729
-0.281498
2.84706
-15.7385
1.80324
13.9177
-2.54807
21.7981
16.7008
-23.1135
-15.3854
-3.1292
10.9578
13.9695
5.13066
8.44094
11.7954
2.43306
-14.5099
-1.62057
15.2192
12.1831
12.6925
3.15571
-23.4221
-19.5627
6.97055
11.5896
1.00258
-12.8272
-1.01442
-5.72109
1.13198
17.3362
-6.28501
15.1945
-0.00456071
-12.0342
10.2857
10.0394
2.89722
-13.2914
-18.9598
4.95792
20.9724
-13.1278
-6.84638
16.3756
-10.2352
-1.06293
0.675249
-0.823129
1.21081
0.485666
-2.11852
0.569926
1.69262
-1.77672
0.569759
0.178405
2.18947
-1.69982
-0.0527094
0.929399
-2.14802
-1.67032
0.503824
1.10396
-1.6605
0.510794
2.33337
-2.34034
-1.87262
2.56182
-1.1644
-0.348299
-0.639446
2.15215
1.63093
-0.82458
-1.97075
0.782742
-1.02863
1.87682
0.824417
-1.11231
-1.48882
-0.265465
1.38165
-3.31855
-1.11467
-10.3431
14.5473
-15.3978
11.1935
7.68505
-0.148004
-17.8801
0.998128
-3.20779
9.89471
-4.46673
20.0122
-24.6184
-1.02219
5.2887
20.3519
-13.5554
-1.51436
-9.54869
1.61877
-5.25625
-11.7603
-3.22958
-15.562
14.3249
-18.3968
14.145
-11.9567
-19.9954
18.0657
-11.1288
-8.4513
20.1466
-9.95356
-3.98971
-8.27175
-0.791187
-2.06584
2.99117
-16.9988
5.73586
-18.9191
4.50089
7.42224
-11.9231
9.13591
-8.23803
3.60301
1.79036
-2.75999
8.39187
-1.17651
12.1028
1.89209
-13.8152
-7.34373
0.997798
1.2646
-18.0546
1.85932
14.9306
-15.7707
3.01515
14.0202
-22.0974
19.7342
1.85617
0.507048
-2.22529
0.269956
-20.1421
-3.24129
4.92095
-19.4222
0.410161
-10.8762
12.7149
-0.774115
1.25415
-7.82377
1.5093
-16.0986
-14.5268
13.6261
14.2412
-14.9572
1.57061
-1.17012
-17.9821
-10.7922
1.13327
7.22902
1.48494
-9.84722
2.41883
0.213836
-13.5205
10.8879
16.7101
9.35223
-18.9749
-7.0874
-9.48047
14.7211
11.4695
-6.87324
8.92683
-2.71067
0.657084
-9.08532
2.50905
-0.296973
15.1473
2.75211
-15.4806
-6.48364
12.5456
0.752036
-4.48356
-9.89282
10.3404
-2.87065
2.42304
2.43644
-12.1154
-3.27132
8.3975
4.22605
1.50608
-18.0445
-7.22235
8.20239
-9.79216
1.10904
-3.70661
12.3897
-7.98978
-24.4977
22.6953
2.33698
21.4044
-13.4218
-10.3196
-12.2346
2.3432
3.84815
6.04328
-12.8669
-15.584
16.2163
-21.9617
1.10497
-6.966
10.3635
16.0925
-19.49
-3.47423
-2.38273
-7.32342
-8.8498
18.5102
-8.77415
-10.3499
11.8006
-7.23595
0.805011
0.666388
0.847292
-11.977
2.2935
-8.5331
-10.6798
-7.45691
6.288
-7.68136
8.85028
-10.9315
6.48263
-3.00802
0.211851
-10.9571
12.3993
-1.65412
-9.68737
-1.03229
-6.16672
-3.65549
16.1102
-6.24661
6.56252
0.23275
-16.1752
9.69579
-22.1626
8.62288
13.7725
-0.923367
6.96396
-15.728
7.44873
-19.3292
3.83377
-13.045
-6.78322
-11.5456
-0.292241
5.01021
-10.5663
15.5337
17.4305
-16.765
6.57198
47.6868
-29.0999
-1.74516
-16.8418
1.33991
21.6397
24.7072
-33.6926
-2.74183
23.8319
12.6025
-19.86
-42.9324
-25.6141
12.8842
14.0698
-17.269
-10.0903
-26.9723
14.1057
10.1247
-12.2109
8.96921
-23.7306
0.55465
-32.6256
8.66179
36.8099
10.1979
-14.7301
17.4164
-32.6768
29.1868
17.5958
-5.616
-18.0916
16.2937
9.91136
-25.6504
25.852
-6.99226
14.1299
-15.1052
-2.62733
2.02717
19.0531
-14.7577
2.03669
14.3891
-6.92199
3.28701
-14.973
18.608
15.964
-18.323
-1.15242
4.71662
-7.09915
18.3465
-11.528
-0.390576
-10.8872
22.8057
-1.76737
-16.6826
-2.91274
22.5637
-5.65571
0.711992
-13.3793
-10.1685
19.5236
-9.74564
3.31604
-15.2519
-19.617
17.2773
2.53358
4.15802
15.9152
-22.6068
7.70715
24.7981
-29.9716
13.3412
-9.34222
10.4001
17.2952
3.36386
-1.13544
22.0896
7.8215
6.67788
-26.3898
11.1475
-16.5457
-6.19129
9.19987
8.36473
1.40939
18.7552
-9.01712
10.3638
9.80109
-13.487
-6.55535
18.3285
8.68258
3.88133
11.5858
7.11566
-10.0188
-0.889514
9.62968
1.94091
2.23337
-15.2155
11.0412
15.2857
-6.6537
6.92433
-15.5563
-4.49955
-0.990678
20.7759
-12.7849
3.50235
-2.0995
11.3821
4.11832
-14.9623
-4.41469
14.9281
-15.0129
-9.9241
-3.82842
12.7618
-16.5972
0.0193638
21.3619
-0.929521
-9.97356
-10.4588
2.14448
2.20615
17.0113
17.7003
-9.24266
-9.3872
4.48278
15.362
12.9283
4.01596
-12.8259
-0.166537
-0.459956
-12.7063
17.1823
-4.20541
-12.231
15.9765
19.3932
-11.723
-17.6437
17.1847
13.8905
-13.2361
-13.6951
14.1629
10.0591
-19.8281
-4.39391
-7.25262
12.1636
9.25193
6.36836
-3.56191
-15.6674
4.06786
12.2911
-0.691488
-17.4363
-11.9533
13.7221
2.2607
-14.5848
18.6925
-4.45037
-11.715
18.426
3.68901
12.5424
14.2916
-13.1457
-5.59628
19.8604
-9.92977
4.36097
4.41741
20.9728
-5.52983
22.9301
-14.8236
-10.0061
-2.22171
-4.34095
16.5687
-15.4776
14.9004
-9.42888
9.83445
-6.93354
-2.90092
3.45124
-0.758595
13.8202
-16.5128
0.0940127
13.1917
9.1981
-4.68455
-6.73526
1.51852
6.61095
-2.36409
-5.76537
9.00388
-7.48536
2.07034
2.40168
-12.9639
9.80362
-6.73745
9.23315
-8.46281
-17.6756
19.401
-6.39247
-18.516
-15.5144
16.3548
-15.4789
-9.42959
-5.37895
-3.34891
-6.78655
-14.2469
-7.11471
1.78695
11.6497
1.42212
-14.8588
-17.5471
15.4049
3.92909
0.565033
-0.657473
-17.4547
-1.53691
-0.102915
17.0448
-1.4262
11.539
5.98223
-22.7708
18.6408
-1.85221
13.9017
-12.708
4.78855
16.5936
-2.92801
-17.3921
3.72643
17.3423
-0.748685
-17.9074
-2.0028
19.8072
-0.721158
13.1967
5.63675
-1.47668
-26.9309
-9.50094
2.42966
19.5993
-1.40608
0.447604
1.30028
17.5778
16.1666
-20.5713
-1.09925
16.5172
17.1927
-17.8952
-20.9866
-18.5959
27.3211
12.2614
-5.7221
-30.6357
15.3712
9.59993
-2.62119
-25.5746
6.19597
34.5448
-13.4197
-29.2205
-10.6162
17.986
21.8507
20.1949
-33.8987
4.85693
8.84683
-6.10126
32.4921
-30.4102
-4.62768
5.81741
-25.7491
1.45038
0.0561662
-21.3231
-4.4822
35.2768
-29.1975
-6.02318
24.0832
16.0505
-13.3957
31.3777
25.5524
-37.0779
-1.87015
5.02671
-22.5422
-3.80756
-24.918
0.747224
2.3848
-3.39311
-2.88929
3.8976
-1.24167
1.16885
2.45762
-0.405026
0.287889
-3.27598
4.16384
0.103241
-4.67211
3.45858
-3.07773
-3.13886
2.75801
-1.65329
2.92085
2.19102
1.26888
-0.108802
-2.86569
-2.12525
6.56191
0.55411
-21.0741
13.958
-5.73918
5.63574
6.66535
10.7616
-0.717827
4.35732
-14.4011
14.2262
6.8826
-20.5547
-12.5797
12.8504
17.0128
-17.2835
-1.37969
-11.2
-12.1411
9.74325
13.1594
-13.5208
9.86317
3.64518
13.7334
-8.96329
2.11244
-4.49737
27.091
19.0992
0.917844
-2.86484
-14.4674
16.4144
-1.89055
-12.7226
15.531
2.62673
1.4138
-18.3074
14.2669
-15.1705
15.9067
-15.2207
13.7696
6.41565
-12.3411
-8.54196
-6.30693
-4.28674
-16.55
5.6663
8.05638
-4.13675
2.36785
-6.28748
-18.6758
11.5115
-2.27986
-20.5327
-10.5937
-1.47387
-14.4657
-2.90626
-15.1177
1.39746
-16.0185
-12.1025
13.0961
-13.5998
5.34149
-4.83785
-6.91797
7.17403
12.8401
8.44105
-2.51453
-19.5263
1.52308
9.38489
4.16826
-8.21167
19.3599
-2.80099
-7.66054
9.18362
-11.5378
1.5423
11.9599
-1.96432
-5.3745
-13.8239
-17.2019
9.31283
10.3101
-14.6254
-14.8093
19.1246
-0.321077
10.6311
-0.586441
10.8881
1.57875
-11.8804
2.18038
-17.3922
9.49568
9.38838
-7.996
9.1746
-0.793877
11.7656
-9.39293
15.5599
-14.1734
0.319946
13.4733
-14.2054
0.412147
4.28043
-6.96265
18.2422
-0.722589
-13.0829
12.9455
0.860073
8.45201
-3.68318
-0.0113914
17.0179
-12.7083
-0.0291721
-0.24884
17.8519
-0.585175
0.615592
8.15636
13.3122
-4.62591
-18.8926
17.8187
-14.8082
15.882
-11.7594
-2.9525
-4.18072
5.00289
-1.70566
14.5215
-26.6628
1.79104
10.0636
-22.7246
-15.6976
-11.7397
18.2005
-1.45798
18.425
-14.6738
-6.70378
12.0555
4.6639
-19.8485
9.89989
31.3247
-8.35996
-33.0391
10.0744
27.1838
-15.7076
19.1416
4.44739
-7.17985
-16.4091
12.75
5.23369
1.15795
2.00424
-33.0888
-13.6913
13.9918
12.4495
-7.13143
-2.11251
15.924
-21.0996
6.48389
12.3864
11.0467
-11.8876
-11.5454
-6.03203
14.494
3.92442
-21.4794
4.08069
14.6076
2.79107
-9.87257
-0.560145
18.7758
-12.6342
1.79885
-7.94042
23.7569
-7.09057
2.10944
11.4989
0.142006
-23.5286
8.30974
-2.84284
13.6944
4.88024
11.2633
-22.5984
11.4771
6.90982
-8.28077
-17.6426
-16.8649
21.1507
13.3569
1.43459
-10.7675
-8.52052
0.0676077
35.1518
-22.248
-12.9714
32.4885
-11.9235
-20.4974
5.22488
15.7216
14.2053
18.1241
19.5893
-21.5108
-6.38696
5.64976
11.1964
13.0064
-8.48123
-11.019
2.27307
12.729
-3.98302
-11.52
-1.88081
2.38181
16.6715
-4.68769
-12.8883
0.904468
11.3722
-6.22071
-15.7539
17.2394
6.10671
-7.59227