/*--------------------------------*- C++ -*----------------------------------*\
  =========                 |
  \\      /  F ield         | OpenFOAM: The Open Source CFD Toolbox
   \\    /   O peration     | Website:  https://openfoam.org
    \\  /    A nd           | Version:  10
     \\/     M anipulation  |
\*---------------------------------------------------------------------------*/
FoamFile
{
    format      ascii;
    class       volVectorField;
    location    "14";
    object      U;
}
// * * * * * * * * * * * * * * * * * * * * * * * * * * * * * * * * * * * * * //

dimensions      [0 1 -1 0 0 0 0];

internalField   nonuniform List<vector> 
75457
(
(4.96492 0.529044 -0.811761)
(5.1369 -0.322225 -1.05043)
(7.06899 0.677391 -0.661869)
(9.18978 0.253588 -1.0393)
(3.65892 1.84506 -0.025367)
(3.78619 2.03089 -0.206907)
(5.35474 0.192961 -0.578698)
(5.07037 1.2027 -1.04629)
(10.1319 -0.0612868 -1.23224)
(9.93608 0.177143 -1.0405)
(10.1271 0.359149 -1.00259)
(4.01012 1.31459 0.132514)
(4.08844 1.05953 -0.337878)
(8.82175 0.510107 -0.497844)
(11.9504 -0.344673 -0.083884)
(12.0453 -0.343976 -0.0706052)
(12.4161 -0.416345 -0.243546)
(12.1924 -0.442503 -0.296062)
(12.1303 -0.380527 -0.100189)
(12.4244 -0.359219 -0.174197)
(12.2397 -0.414566 -0.25611)
(12.3167 -0.408994 -0.120982)
(12.0172 -0.370659 -0.0933171)
(12.0147 -0.37891 -0.128595)
(12.2955 -0.431403 -0.109118)
(11.7836 -0.425282 -0.269123)
(11.7331 -0.452222 -0.290186)
(11.1181 -0.585343 0.212972)
(10.96 -0.622085 0.299367)
(11.0494 -0.589664 0.188509)
(11.2448 -0.543999 0.1812)
(10.8697 -0.588815 0.251611)
(10.8819 -0.583951 0.269495)
(11.5724 -0.437894 0.224199)
(11.5511 -0.419541 0.19279)
(11.7034 -0.443029 0.357037)
(11.6281 -0.46947 0.248866)
(10.8304 -0.619107 0.310227)
(10.9577 -0.607637 0.315614)
(11.6177 -0.38897 0.234548)
(11.6488 -0.39826 0.25107)
(11.623 -0.419178 0.253999)
(11.6756 -0.488855 0.358508)
(12.8453 0.469543 0.602942)
(12.5861 0.486064 0.548885)
(13.0393 0.485689 0.589231)
(13.0474 0.460029 0.611305)
(12.8067 0.507046 0.631958)
(12.3966 0.181868 0.107993)
(12.6407 0.281453 0.202397)
(12.6506 0.289385 0.189791)
(12.4728 0.196626 0.151523)
(12.173 0.218791 0.0398016)
(12.5659 0.274638 0.179062)
(12.6965 0.257905 0.238068)
(12.7 0.26219 0.211718)
(12.273 0.291173 0.123004)
(12.2951 0.289586 0.106515)
(12.3574 0.182735 0.0686691)
(12.1383 0.209002 0.0272013)
(12.2222 0.255418 0.0841538)
(12.4533 0.196579 0.116266)
(9.92866 0.0568999 -0.291657)
(9.9368 0.0671058 -0.316084)
(10.1221 0.0906588 -0.247738)
(9.92194 0.062388 -0.286079)
(9.94598 0.0570267 -0.26773)
(9.89431 0.0359761 -0.263958)
(9.91262 0.0423201 -0.203785)
(9.80492 0.028634 -0.225747)
(9.82232 0.00942685 -0.223728)
(9.76707 0.00289619 -0.235547)
(9.94371 0.0497945 -0.211842)
(10.1178 0.0918422 -0.247891)
(9.9249 0.0492269 -0.191169)
(10.0962 0.082306 -0.217532)
(10.0865 0.0739112 -0.206125)
(0.504194 0.795132 0.39314)
(-1.06341 1.10192 -0.722209)
(-0.638082 0.920074 -0.711022)
(1.49844 1.02751 0.661351)
(-1.14497 1.33406 -0.225469)
(0.441319 0.47508 -0.00060188)
(-0.128443 0.42151 -0.438143)
(-0.493695 1.03547 -0.557973)
(-0.803894 1.20767 -0.743721)
(0.0641897 0.809758 -0.888626)
(0.312936 0.594443 -1.08597)
(1.4255 0.652527 -0.204232)
(1.76392 0.979646 0.219602)
(0.231071 0.488741 -0.3993)
(-0.0613143 0.429883 -0.714723)
(0.423082 1.09344 0.492214)
(-0.594369 0.750815 -0.0839206)
(12.5305 -0.264225 -0.0171512)
(12.9121 -0.269105 -0.020068)
(12.9122 -0.272421 -0.0198014)
(12.9319 -0.272808 -0.0147756)
(12.3123 -0.262575 -0.0173594)
(12.5657 -0.260292 -0.0184231)
(12.5636 -0.272189 0.00550509)
(12.4244 -0.251883 -0.0165243)
(10.0176 -0.00988924 -0.0194718)
(10.0279 -0.00914514 -0.0163084)
(10.021 -0.0148817 -0.0219332)
(10.0213 -0.0194184 -0.0153987)
(10.0125 -0.0174137 -0.00655723)
(10.0241 -0.0172926 -0.00566336)
(9.85568 0.000711751 -0.0203315)
(9.93381 -0.0143995 -0.0148696)
(9.94532 -0.0181589 -0.0109483)
(9.90249 -0.0188362 -0.00155986)
(9.87136 -0.0258003 -0.0229392)
(10.7597 0.114824 0.0672003)
(10.7961 0.138246 0.187553)
(10.3935 0.0973095 0.11295)
(10.3831 0.0318044 0.038272)
(10.7744 0.0867021 0.205061)
(10.6475 0.151164 0.116281)
(10.5481 0.201527 -0.021134)
(10.8618 0.106542 0.268532)
(10.8542 0.131253 0.277521)
(10.7507 0.129196 0.271302)
(10.5541 0.153363 0.127581)
(10.4555 0.126024 0.0898574)
(10.5003 0.123249 0.142139)
(10.5535 0.165965 0.0563517)
(10.499 0.0933279 0.150757)
(10.5384 0.0577195 0.082524)
(10.6383 0.117107 0.229288)
(10.733 0.115678 0.246565)
(11.3282 0.00556012 0.381063)
(11.4006 0.0787406 0.331226)
(11.4029 0.0551932 0.362372)
(11.3298 0.0331127 0.325069)
(11.3263 0.0189038 0.317024)
(11.3158 0.0790701 0.334874)
(11.2469 0.0376313 0.31324)
(11.2535 0.0274309 0.360448)
(11.2026 -0.00797995 0.332128)
(11.9557 0.0345026 0.189436)
(11.9627 0.0204185 0.210111)
(11.8539 0.0136927 0.244075)
(11.9668 0.0295997 0.15874)
(11.9999 0.0182534 0.179224)
(11.6972 0.0249876 0.122248)
(11.8708 0.00433443 0.251892)
(11.9043 -0.00607436 0.215578)
(12.835 0.0436769 0.00988651)
(12.9275 0.0591038 0.0429805)
(12.6968 0.0239885 -0.0533357)
(12.7174 0.0927173 0.0241692)
(13.1312 0.0500646 0.142293)
(13.0761 0.0927423 0.186395)
(12.896 0.0574313 0.0844329)
(12.7291 0.088795 0.0218714)
(12.698 0.0759112 0.0691506)
(12.6366 0.075016 -0.000632506)
(13.053 0.0844689 0.173461)
(12.7211 0.0916142 0.03368)
(12.7375 0.0374278 -0.0047473)
(13.0357 0.0837283 0.214572)
(12.6536 0.0814418 0.0676619)
(11.5416 1.08438 0.910703)
(11.2962 1.24295 0.900556)
(11.2072 1.30724 0.861252)
(11.3978 1.2171 0.814044)
(11.2632 1.11108 0.773861)
(11.7388 0.946679 0.878544)
(11.5774 0.757942 0.571149)
(11.4529 0.883456 0.698771)
(11.5814 1.27403 1.04053)
(11.4632 0.959258 0.676934)
(11.568 1.07518 0.714883)
(11.8332 1.14607 0.918122)
(11.6597 0.934967 0.620224)
(12.9699 -0.0651821 -0.0692792)
(13.0926 -0.0260274 -0.0848327)
(12.9878 -0.00269446 -0.0367849)
(12.8081 -0.0314667 -0.0115248)
(12.8371 -0.0109483 0.000334685)
(12.7008 -0.0176492 -0.0400254)
(12.9398 -0.06512 -0.0365474)
(12.8803 -0.0756724 -0.0130032)
(12.7399 -0.083207 -0.000216081)
(13.0853 -0.0312453 -0.0980523)
(12.8264 -0.0341514 -0.0293212)
(12.9707 -0.0578821 -0.0548316)
(12.7243 -0.030015 -0.0143874)
(12.6804 -0.0231316 0.00148644)
(9.96202 -0.0879713 -0.733907)
(9.39584 -0.25529 -0.898453)
(9.23598 -0.0789579 -0.995768)
(8.54081 -0.135649 -0.809941)
(7.96495 -0.22553 -0.891461)
(8.37755 -0.108254 -0.873392)
(11.6328 0.441157 -0.645006)
(11.4777 0.285784 -0.487908)
(11.5543 0.266195 -0.463575)
(11.6544 0.337468 -0.495863)
(11.7656 0.359184 -0.504642)
(11.4031 0.241234 -0.213944)
(11.2578 0.370668 -0.14362)
(11.3042 0.364613 -0.115166)
(11.438 0.409641 -0.243274)
(11.6802 0.41865 -0.255625)
(11.5211 0.340596 -0.0654785)
(11.8768 -0.00167945 -0.0957076)
(11.9261 -0.0136156 -0.0400371)
(11.9703 -0.0205196 -0.0359989)
(12.1898 -0.0443814 -0.060498)
(12.1109 0.00139223 -0.111702)
(11.7844 -0.0107031 -0.0580455)
(11.7907 0.0454748 -0.0817429)
(12.0997 0.0028971 -0.126219)
(11.9881 -0.00149994 -0.0794142)
(11.8631 -0.0295808 -0.0241253)
(12.0935 0.00475814 -0.123031)
(11.7548 0.0148674 -0.0888524)
(11.7175 0.00575925 -0.0160909)
(11.7336 -0.00135297 -0.0408579)
(11.7723 0.473735 -0.0278165)
(11.8434 0.494115 0.0136793)
(11.6761 0.473917 -0.0215995)
(12.0219 0.449275 0.00205692)
(11.8802 0.433779 0.0424521)
(11.7758 0.529677 -0.0301907)
(11.8466 0.531281 -0.0076407)
(11.8057 0.564965 -0.0515399)
(11.7087 0.557526 -0.0265259)
(12.108 0.5165 -0.0741624)
(12.1453 0.498531 -0.0645734)
(11.8943 0.534196 -0.0169102)
(11.8674 0.527294 -0.0343592)
(11.9288 0.530593 -0.00208221)
(12.2195 0.00619328 -0.262519)
(12.0018 0.000133577 -0.286051)
(12.3998 -0.0497339 -0.267763)
(12.3479 -0.0345859 -0.213946)
(12.3643 -0.0488308 -0.212181)
(12.4223 -0.0528191 -0.277129)
(12.1389 -0.006181 -0.21522)
(12.0038 0.0226568 -0.252148)
(12.0058 -0.00278173 -0.269237)
(11.9616 -0.00900902 -0.263029)
(12.1268 -0.0225213 -0.285417)
(12.1091 -0.0129733 -0.203032)
(12.1165 -0.00728006 -0.190243)
(11.9777 0.0015465 -0.275855)
(11.9287 -0.00721539 -0.260475)
(12.0466 -0.00153385 -0.199171)
(12.0078 0.0175554 -0.253187)
(10.6742 -0.0788654 -0.0307625)
(10.4172 0.0215909 -0.105402)
(10.5256 0.0203592 -0.0983661)
(10.4971 0.038068 -0.0855358)
(10.7407 -0.134775 0.000837196)
(10.885 -0.164166 -0.0220499)
(10.7758 -0.237706 0.135848)
(11.9558 -0.200201 0.1536)
(12.0221 -0.286542 0.14788)
(11.9677 -0.250966 0.150086)
(10.7537 -0.091801 -0.00407538)
(10.6969 -0.183858 0.0476508)
(12.5144 0.286865 -0.179379)
(11.8267 0.18641 0.00932491)
(12.0196 0.143696 -0.271717)
(11.9045 -0.00102728 -0.150669)
(11.9077 0.174275 0.0217784)
(12.1224 -0.0232489 -0.192629)
(12.0335 0.0146046 -0.175818)
(12.0449 0.173282 -0.0263541)
(12.2273 0.269826 -0.451324)
(12.1022 0.252702 -0.3967)
(12.4519 0.304024 -0.204018)
(12.1179 0.250852 -0.363016)
(12.4625 0.293101 -0.197135)
(12.4172 0.0557075 0.151776)
(12.343 0.017027 0.165439)
(12.5467 0.0839102 0.183366)
(12.4553 0.00999175 0.212111)
(12.43 -0.00268357 0.217881)
(12.3513 0.0483922 0.1375)
(12.3606 0.0149252 0.155677)
(12.4313 0.0361246 0.180685)
(12.4071 0.0166307 0.191062)
(12.4423 0.079488 0.146189)
(12.7938 0.169047 0.18783)
(12.7285 0.146531 0.179458)
(12.4422 0.0664773 0.148079)
(12.6618 0.139552 0.149293)
(12.6329 0.133675 0.145232)
(9.5791 0.10763 0.0189816)
(9.52146 0.0883313 0.0347403)
(9.34255 -0.00450522 -0.00675696)
(9.32942 0.00315741 -0.00948653)
(9.45009 0.0896087 -0.0216026)
(9.5919 0.0878858 0.00792589)
(9.61269 0.104497 0.0096388)
(9.40912 0.0450573 0.00460444)
(9.48987 0.0408153 0.0120512)
(2.51937 -0.114192 0.0470363)
(2.43562 -0.0316793 0.0794103)
(2.74072 -0.219715 0.0286649)
(2.86603 -0.22805 -0.0137917)
(2.69412 -0.172269 0.0403313)
(2.52844 -0.046165 -0.0256162)
(2.69433 -0.0975531 -0.136278)
(2.85907 -0.247975 -0.109415)
(2.62501 -0.0680818 -0.0654066)
(2.88876 -0.193575 -0.172128)
(3.13002 -0.294648 -0.144463)
(2.89279 -0.239447 -0.079669)
(3.0882 -0.308225 -0.0959056)
(2.34808 -0.0407802 -0.158568)
(0.199421 0.19588 0.0374176)
(0.12841 -0.0707477 -0.33918)
(1.85144 -0.0650633 -0.318166)
(2.18626 -0.215484 -0.372784)
(1.78941 -0.237142 -0.267983)
(2.23599 -0.187532 -0.269703)
(-0.986453 -0.0557951 -0.520312)
(-0.969369 0.306174 -0.241404)
(-0.511263 0.113019 0.0328486)
(-0.606317 -0.109774 -0.310969)
(12.689 0.131639 0.149232)
(12.8001 0.167205 0.1608)
(12.8099 0.181781 0.150192)
(12.5368 0.218694 0.0714991)
(12.4648 0.207109 0.0555756)
(12.5079 0.141074 0.0856418)
(12.532 0.180879 0.0759616)
(12.4653 0.200509 0.0574499)
(12.3885 0.188653 0.0588574)
(12.6695 0.12042 0.140061)
(12.7152 0.142207 0.126336)
(12.2472 0.0817252 0.044353)
(12.2271 0.0771315 0.0725583)
(12.2716 0.128578 0.0157522)
(12.4264 0.147454 0.0837949)
(12.1969 0.0729599 0.0548455)
(12.1881 0.0728007 0.0298029)
(-1.75104 -0.211299 -1.07219)
(-1.46408 -0.67544 -0.587794)
(-1.61629 -0.272077 -0.737481)
(-1.3546 -1.23072 -0.287506)
(-2.57503 -0.079735 -0.436304)
(-2.27417 -0.213922 -0.676482)
(-2.70297 0.187133 -0.607424)
(-0.752047 -1.1812 -0.327771)
(-1.7501 -0.514987 -0.75748)
(-1.82385 -0.804592 -0.166848)
(-1.75748 -0.823412 -0.216619)
(10.8476 0.220905 0.0389841)
(10.9138 0.231158 0.0105334)
(10.6721 0.162474 0.00470073)
(10.3275 0.0513473 0.0363424)
(10.5034 0.170198 -0.0222329)
(10.1264 0.0852731 -0.0133116)
(10.1188 0.077766 -0.0240046)
(10.2413 0.0730368 0.0283196)
(10.5579 0.141839 0.0499153)
(10.1148 0.0085815 0.0261936)
(10.529 0.142136 0.0375639)
(11.7477 0.158284 0.118437)
(11.7296 0.154917 0.0949186)
(11.7642 0.168467 0.12059)
(11.7405 0.150888 0.0872832)
(11.5413 0.14617 0.0560097)
(11.6112 0.158276 0.083531)
(11.3602 0.192752 0.0379375)
(11.4428 0.196897 0.0538907)
(11.5998 0.187974 0.0782232)
(11.4661 0.180417 0.0563241)
(11.2819 0.185569 0.00147765)
(11.3499 0.19183 0.00806193)
(11.4358 0.136512 0.0436911)
(11.4962 0.150966 0.0527141)
(11.3981 0.158237 0.0489527)
(4.41231 -0.393487 -0.306204)
(3.66559 -0.271171 -0.478235)
(3.25043 -0.201672 -0.635598)
(3.42078 -0.051329 -0.687333)
(2.76999 -0.0537246 -0.628568)
(12.2819 -0.0402197 0.525455)
(12.386 -0.0640867 0.523128)
(12.5209 -0.0862252 0.576357)
(12.4563 -0.0776589 0.575241)
(12.7811 -0.137992 0.573351)
(12.7549 -0.146801 0.588217)
(12.5746 -0.0908886 0.557602)
(7.92238 2.55335 0.0538982)
(7.47538 2.72027 -0.461957)
(8.85652 2.32396 -0.22219)
(8.71223 2.6002 -0.376073)
(7.96041 3.01376 -0.0164124)
(7.42439 3.05173 -0.552579)
(8.06523 2.29158 0.0737986)
(7.5552 2.39786 -0.551118)
(8.17806 3.06953 -1.20537)
(7.32451 3.11489 -1.27168)
(8.26466 2.17801 -0.0272121)
(7.93887 2.18554 -0.61766)
(8.26057 2.73855 -1.11757)
(7.72967 2.697 -0.942233)
(8.9317 2.23449 -0.228199)
(8.42631 2.49127 -1.05449)
(7.87035 2.44804 -0.882975)
(8.94265 2.28579 -0.427637)
(9.61615 2.11198 -0.272156)
(9.77026 1.95173 -0.348851)
(9.57565 2.00174 -0.573238)
(9.50254 2.09524 -0.662243)
(9.51624 1.81058 -0.567174)
(9.43666 2.12246 -0.6556)
(9.5647 1.94779 -0.146338)
(9.49579 2.12146 -0.195439)
(9.41487 2.24092 -0.529091)
(8.98629 2.06256 -0.474163)
(9.29975 1.74013 -0.395786)
(9.28711 1.91256 -0.190224)
(9.00473 2.25359 -0.144734)
(10.1933 3.24564 -0.891875)
(10.5449 2.80717 -0.822472)
(10.9709 2.13399 -0.295188)
(10.8855 2.02692 -0.300039)
(10.3373 2.52185 -0.80673)
(10.5629 2.5147 -0.723874)
(10.6992 2.24498 -0.445845)
(10.6765 2.16845 -0.454961)
(10.4485 3.24315 -0.738175)
(10.7814 2.97046 -0.599107)
(9.94847 2.87492 -0.829412)
(10.0244 2.97069 -0.811269)
(10.7478 2.66046 -0.225225)
(10.6596 2.45975 -0.204221)
(10.9647 2.39297 -0.283338)
(10.3987 2.20381 -0.526659)
(10.0884 2.66631 -0.473463)
(10.1602 2.79615 -0.501139)
(10.4697 2.75926 -0.256776)
(10.4581 2.61855 -0.285115)
(10.3893 2.89326 -0.420943)
(10.3069 2.55247 -0.353325)
(13.1839 -0.0601251 0.311553)
(12.958 -0.0701025 0.281124)
(13.037 -0.114348 0.293653)
(12.9616 -0.0669522 0.292997)
(13.0461 -0.1136 0.301533)
(13.2324 -0.0490684 0.334268)
(13.0876 -0.0423119 0.320985)
(13.2708 -0.0907179 0.300138)
(13.0412 -0.0652706 0.287428)
(13.1919 -0.0470324 0.319546)
(13.1872 -0.127553 0.289033)
(13.0852 -0.0540252 0.31135)
(13.2591 -0.11019 0.292875)
(13.1031 -0.0597603 0.302709)
(13.2733 -0.118927 0.28696)
(13.238 -0.0681501 0.305353)
(4.49178 -0.0601484 -0.358918)
(-1.71409 -0.16635 -0.197971)
(2.38296 1.99647 0.429068)
(2.67823 2.4648 0.384543)
(9.92799 0.996285 -1.71894)
(10.1219 1.1091 -2.01446)
(4.29529 2.16219 -0.510489)
(4.47432 1.87806 -0.294084)
(10.5499 0.649614 -1.5648)
(10.7072 0.64978 -1.7402)
(0.15706 0.39433 0.593895)
(5.95834 0.0704695 -0.777038)
(4.28369 0.654132 -0.118907)
(5.07305 1.90001 -0.28309)
(9.87849 1.12781 -1.53218)
(10.656 1.03032 -1.41232)
(12.5942 0.113457 0.308868)
(12.6473 0.159302 0.297733)
(12.5326 0.113935 0.245548)
(12.489 0.115321 0.207368)
(12.4546 0.123504 0.218275)
(12.468 0.114031 0.267641)
(12.5892 0.121766 0.260667)
(12.6545 0.132692 0.297998)
(12.5792 0.162543 0.306975)
(12.5368 0.101556 0.311462)
(12.3968 0.131276 0.20895)
(12.3766 0.0978534 0.158337)
(12.4318 0.118954 0.227528)
(12.4622 0.117013 0.268836)
(12.39 0.0986673 0.15059)
(12.4581 0.104935 0.163638)
(12.5533 0.106648 0.197202)
(12.5 0.116845 0.211033)
(9.72483 1.76709 -0.0859821)
(9.42158 1.68966 0.662554)
(9.3328 2.06277 0.830684)
(9.70097 1.93204 0.172279)
(9.59561 2.08393 0.0480587)
(9.2125 2.54135 0.296798)
(8.69794 2.72999 0.265125)
(9.34942 1.73634 -0.0802589)
(9.53585 2.08965 0.593197)
(9.00433 1.94254 0.634812)
(8.85555 2.21293 0.674592)
(8.79279 2.69047 0.386388)
(9.29568 2.42857 0.545861)
(9.72079 1.7973 0.36932)
(9.66517 1.62609 0.361234)
(9.6144 1.6644 -0.0288038)
(10.5694 0.66595 -0.240889)
(10.6444 0.667081 -0.191644)
(10.6028 0.610287 -0.230947)
(10.6056 0.780002 -0.264071)
(10.7174 0.845711 -0.168072)
(10.5462 0.557619 -0.2511)
(10.4802 0.641776 -0.321093)
(10.5183 0.732191 -0.347488)
(10.5792 0.748858 -0.337551)
(10.5164 0.734848 -0.38394)
(10.5715 0.744665 -0.323727)
(10.6452 0.750231 -0.360896)
(10.5921 0.73978 -0.405588)
(10.6978 0.768551 -0.307465)
(10.6373 0.738232 -0.300925)
(10.4871 0.604864 -0.288639)
(10.4534 0.634728 -0.347069)
(11.7172 -0.0542942 0.799842)
(11.7236 -0.0277377 0.771232)
(11.8396 0.121354 0.665546)
(11.8415 0.154868 0.681088)
(11.8342 0.162134 0.685533)
(11.8336 0.117415 0.661936)
(11.7365 -0.0191237 0.867643)
(11.7126 -0.00954667 0.895696)
(11.8362 0.287982 0.813932)
(11.8288 0.37972 0.967308)
(11.7044 -0.0156465 0.72446)
(11.845 0.120556 0.669982)
(11.8495 0.287116 0.820055)
(11.8501 0.323675 0.903176)
(11.7123 0.00360296 0.692665)
(11.8882 0.285658 0.886064)
(11.7812 0.00100766 0.83074)
(10.0428 -1.449 0.23104)
(10.3908 -1.41799 0.247925)
(10.5356 -1.42684 0.366931)
(9.91366 -1.54259 0.308642)
(10.4067 -1.36005 0.155901)
(9.807 -1.55834 0.218186)
(9.81947 -1.36676 -0.0846251)
(9.55889 -1.48112 -0.105)
(10.4623 -1.34751 0.205893)
(10.5959 -1.4289 0.285979)
(10.5919 -1.42314 0.381581)
(9.96899 -1.63393 0.267454)
(9.3397 -1.56814 -0.178205)
(9.72674 -1.4868 -0.129246)
(9.66596 -1.69001 -0.212892)
(10.0399 -1.34267 -0.024298)
(9.36784 -1.7403 -0.177295)
(9.44069 -1.76982 -0.192366)
(12.1933 -0.5369 0.253111)
(12.3925 -0.463876 0.293201)
(12.3874 -0.420259 0.279252)
(12.3669 -0.376518 0.166343)
(12.136 -0.442047 0.145729)
(12.4203 -0.33142 0.247394)
(12.1738 -0.52762 0.258608)
(12.3262 -0.444378 0.277649)
(12.311 -0.419705 0.263824)
(12.4009 -0.314024 0.248735)
(12.2969 -0.383212 0.161599)
(12.2446 -0.425092 0.23439)
(12.3267 -0.347197 0.202163)
(12.1103 -0.529185 0.192224)
(11.8514 -0.887049 0.403417)
(11.909 -0.828746 0.423352)
(11.8266 -0.803507 0.70351)
(12.1885 -0.650016 0.724699)
(11.857 -0.807551 0.731964)
(11.8213 -0.85058 0.713885)
(11.6459 -0.951798 0.50097)
(11.9357 -0.839323 0.403765)
(12.0211 -0.762448 0.448785)
(11.7681 -0.961465 0.647415)
(11.792 -0.937868 0.637708)
(11.6998 -0.95074 0.529735)
(11.9411 -0.849882 0.438805)
(12.2359 -0.647942 0.52626)
(12.2384 -0.660771 0.515476)
(11.7729 -0.922268 0.493932)
(12.2126 -0.701238 0.579033)
(11.9117 -0.863294 0.595213)
(10.6111 3.36498 -0.741822)
(10.9862 3.28963 -0.64587)
(10.9799 3.04147 -0.60039)
(10.4154 3.29165 -0.51692)
(10.7277 3.49318 -0.520799)
(11.3353 2.99616 -0.306717)
(11.1852 2.63235 -0.278026)
(11.0332 3.4164 0.0242648)
(11.2459 3.23815 0.0613695)
(10.5832 3.35171 -0.132291)
(11.0923 2.56045 -0.223163)
(11.0866 3.58561 -0.15186)
(11.7263 -0.300247 0.918356)
(12.3265 -0.224076 0.973436)
(11.5108 -0.486676 0.887311)
(12.3012 -0.211871 0.966413)
(11.5956 -0.252762 0.949283)
(11.983 -0.411597 0.800036)
(11.5674 -0.391917 0.904925)
(11.6277 -0.435313 0.866845)
(11.8611 -0.451295 0.844908)
(12.5777 -0.177122 0.840972)
(12.7054 -0.174347 0.761615)
(12.5566 -0.20427 0.837379)
(12.351 -0.327191 0.738897)
(12.4746 -0.320191 0.68917)
(12.6877 -0.185673 0.7633)
(12.4634 -0.30776 0.694823)
(12.4372 -0.161041 0.835777)
(12.2586 -0.107272 0.815278)
(12.3645 -0.136286 0.820689)
(12.2487 -0.099119 0.788497)
(11.9076 -0.1285 0.913921)
(11.7543 -0.268577 0.963117)
(11.324 -0.295692 0.941276)
(11.8886 -0.0807596 0.998179)
(11.9196 -0.113704 0.889922)
(12.2206 -0.0828404 0.801002)
(12.3096 -0.124435 0.813358)
(12.2542 -0.2441 0.858684)
(11.3915 -0.338729 0.912982)
(12.1688 -0.215036 0.827112)
(12.0134 -0.316771 0.85524)
(12.0224 -0.304832 0.863743)
(12.4494 0.466751 0.586504)
(12.5151 0.481796 0.60775)
(12.5662 0.413286 0.558528)
(12.3835 0.52299 0.437753)
(12.1861 0.699909 0.559778)
(12.4031 0.28783 0.526034)
(12.3311 0.298428 0.516961)
(12.5901 0.571372 0.549533)
(12.4775 0.64562 0.618523)
(12.4225 0.628864 0.45748)
(12.2716 0.713458 0.556875)
(12.3936 0.587127 0.623359)
(12.3323 0.546814 0.595725)
(12.2136 0.510297 0.621441)
(12.3006 0.429306 0.519407)
(12.4775 0.301856 0.529325)
(12.4408 0.359043 0.496105)
(12.3624 0.354738 0.51674)
(12.4831 0.521752 0.497821)
(11.1174 -0.309848 -0.608345)
(11.0726 -0.315456 -0.576807)
(11.4647 -0.309269 -0.493387)
(10.7201 -0.352362 -0.618303)
(11.1717 -0.299575 -0.605314)
(10.7982 -0.359125 -0.566614)
(11.0745 -0.386422 -0.61843)
(11.5885 -0.300725 -0.568556)
(11.0485 -0.366854 -0.489606)
(11.8126 -0.3276 -0.4344)
(10.8106 -0.391308 -0.572732)
(11.1955 -0.4265 -0.536241)
(11.2585 -0.420051 -0.430538)
(11.24 -0.443104 -0.465005)
(9.0716 -0.25865 -0.323727)
(9.02285 -0.239232 -0.323181)
(9.71431 -0.305525 -0.188631)
(9.30358 -0.289348 -0.259812)
(9.39428 -0.271079 -0.252973)
(9.47508 -0.28344 -0.258932)
(10.1734 -0.258029 -0.122239)
(9.91803 -0.319128 -0.315754)
(9.72293 -0.31356 -0.335296)
(10.612 -0.297774 -0.162208)
(10.4581 -0.266269 -0.161882)
(9.26986 -0.342734 -0.359562)
(10.3401 -0.290302 -0.164098)
(10.1345 -0.2934 -0.253286)
(10.1122 -0.299874 -0.246344)
(10.5985 -0.289751 -0.162166)
(10.5081 -0.266733 -0.166778)
(10.1928 -0.249547 -0.212671)
(11.7909 1.2498 -0.128368)
(11.4161 1.35187 -0.546612)
(11.1095 1.48245 -0.804717)
(12.4256 0.580802 -0.214064)
(12.3363 0.802065 -0.185853)
(11.8101 1.07009 -0.456474)
(12.0032 0.99488 -0.142168)
(12.5415 0.535261 -0.206909)
(12.3726 0.807803 -0.157244)
(11.4404 1.05186 -0.764014)
(11.9548 0.784731 -0.567627)
(4.47154 -1.11837 -1.2049)
(4.60467 -1.16865 -1.15109)
(4.54301 -1.0256 -1.15118)
(4.39725 -0.957956 -1.26412)
(3.61627 -0.465779 -1.40347)
(3.14944 -0.154879 -1.09035)
(3.15027 -0.103894 -1.39241)
(2.92213 -0.0279054 -1.17171)
(5.02823 -1.19527 -1.27024)
(5.37954 -1.24111 -1.22538)
(4.62154 -1.07451 -1.09805)
(4.15244 -0.617177 -1.14425)
(4.08598 -0.489346 -1.21394)
(3.74063 -0.517803 -1.098)
(3.6944 -0.315625 -1.18839)
(3.69394 -0.40423 -1.12853)
(3.20272 -0.119421 -1.28953)
(5.32086 -1.19268 -1.17277)
(5.14937 -1.03413 -1.25685)
(5.42372 -1.21316 -1.16512)
(4.83231 -0.981288 -1.38955)
(13.4245 -0.165954 0.400403)
(13.4299 -0.171098 0.368125)
(13.4232 -0.100154 0.429984)
(13.4485 -0.132267 0.387528)
(13.4248 -0.112218 0.435697)
(13.4123 -0.17205 0.383612)
(13.4154 -0.170481 0.401857)
(13.4013 -0.0913286 0.392872)
(13.3725 -0.0783484 0.42583)
(13.2965 -0.0909273 0.44604)
(13.3017 -0.10883 0.409678)
(13.2505 -0.0893163 0.443616)
(13.4014 -0.100328 0.382694)
(13.2967 -0.0830221 0.446022)
(13.2122 -0.0743061 0.422029)
(13.3113 -0.0900296 0.391339)
(13.2179 -0.0624233 0.426829)
(12.1795 0.0528868 0.847148)
(12.0427 0.0433074 0.862001)
(11.7414 0.0164408 0.92953)
(11.1235 0.0375601 0.904759)
(12.1366 0.0576037 0.873345)
(12.0203 0.0469183 0.910711)
(11.2344 0.285498 0.58731)
(11.213 0.164002 0.733447)
(11.8463 0.0203667 0.929034)
(11.1129 0.0720824 0.869572)
(11.3264 0.159595 0.880973)
(8.41589 -0.196859 0.231437)
(8.48491 -0.0890277 0.110111)
(8.28632 -0.0608688 0.151126)
(6.64939 -0.207322 -0.0226219)
(7.65859 -0.191807 0.18844)
(5.69889 -0.148592 -0.0382993)
(5.09036 -0.146655 -0.101074)
(6.09799 -0.198797 0.17473)
(7.50333 0.00140012 0.255039)
(7.83178 -0.076778 0.154595)
(5.59935 -0.0786803 0.00200204)
(6.21629 -0.0696788 0.0335228)
(5.9361 -0.0309337 0.146173)
(12.3657 -0.317575 -0.247345)
(12.329 -0.293855 -0.237634)
(12.4456 -0.315082 -0.146547)
(12.468 -0.319776 -0.152784)
(12.2747 -0.367294 -0.222044)
(12.288 -0.352726 -0.208489)
(12.2422 -0.340136 -0.287395)
(12.223 -0.334226 -0.288117)
(12.4135 -0.288347 -0.164611)
(12.4829 -0.309326 -0.179263)
(12.2804 -0.289085 -0.244968)
(12.2975 -0.279025 -0.235497)
(12.5185 -0.313358 -0.144821)
(12.2457 -0.346103 -0.247051)
(12.4738 -0.29748 -0.127076)
(12.4434 -0.290473 -0.141027)
(12.2883 -0.288308 -0.221919)
(12.3257 -0.284105 -0.201114)
(12.4339 -0.288958 -0.13661)
(12.4365 -0.294903 -0.134489)
(12.393 -0.29748 -0.16928)
(12.3158 -0.311969 -0.205777)
(11.9455 -0.483318 -0.465763)
(12.4597 -0.417967 -0.396629)
(11.7046 -0.383439 -0.552913)
(12.5029 -0.321162 -0.437492)
(12.5335 -0.423413 -0.390793)
(11.4746 -0.484925 -0.426301)
(11.6397 -0.335341 -0.565272)
(12.5164 -0.310996 -0.433053)
(12.0721 -0.332941 -0.52383)
(11.4462 -0.482222 -0.400832)
(12.0073 -0.425553 -0.343803)
(12.0578 -0.4486 -0.388709)
(11.2744 -0.401416 -0.600596)
(12.4706 -0.32218 -0.441657)
(12.0555 -0.321914 -0.525783)
(11.1373 -0.421392 -0.640256)
(11.6546 -0.356265 -0.633023)
(12.2346 -0.390975 -0.432666)
(12.5147 -0.399858 -0.398669)
(12.4838 -0.387829 -0.421124)
(12.793 0.370269 0.315238)
(12.6139 0.407587 0.351385)
(12.5089 0.399815 0.458131)
(12.5628 0.36671 0.522085)
(12.7554 0.358492 0.293572)
(12.6333 0.387611 0.338463)
(12.5127 0.35788 0.517079)
(12.4379 0.386622 0.470366)
(12.8212 0.326429 0.407543)
(12.7814 0.291167 0.452395)
(12.8258 0.30077 0.417921)
(12.7498 0.339241 0.31756)
(12.715 0.33231 0.31228)
(12.6111 0.382078 0.343001)
(12.8445 0.299354 0.430443)
(12.8036 0.290604 0.479907)
(12.7392 0.283091 0.403073)
(12.5809 0.365814 0.337113)
(12.4176 0.361288 0.468099)
(12.4804 0.352568 0.533801)
(12.474 0.340002 0.44237)
(12.4242 0.349008 0.503119)
(11.3188 -0.0303331 0.776752)
(11.3664 0.0552366 0.798795)
(12.4327 0.0500001 0.746405)
(12.361 0.0637868 0.742231)
(12.2459 0.0307611 0.79528)
(12.1135 0.0757007 0.814365)
(12.2824 0.0359258 0.755752)
(12.2284 0.0187638 0.790161)
(12.03 -0.00470643 0.766255)
(11.4336 -0.0331108 0.752841)
(11.3275 -0.102823 0.749543)
(11.4455 -0.0667303 0.752528)
(12.1772 0.103686 0.751203)
(12.2919 0.0998966 0.713047)
(12.3753 0.0699089 0.720479)
(11.5714 -0.0222665 0.74864)
(11.8221 0.0522843 0.70456)
(12.5927 0.405703 0.851893)
(12.5959 0.478165 0.820523)
(12.8688 0.250858 0.788312)
(12.836 0.333529 0.756353)
(12.8949 0.285471 0.77092)
(13.0037 0.255203 0.752625)
(13.0547 0.242208 0.734673)
(12.9406 0.416171 0.691068)
(12.9073 0.410275 0.710938)
(12.8417 0.485221 0.688199)
(12.9097 0.466286 0.673412)
(13.0385 0.292018 0.718323)
(12.8775 0.497898 0.66858)
(12.8064 0.497798 0.670384)
(10.9345 0.83236 -0.384481)
(10.8897 0.759718 -0.235668)
(10.8343 0.709174 -0.234273)
(10.866 0.773426 -0.41812)
(10.7995 0.765155 -0.423359)
(10.9342 0.619135 -0.282369)
(10.8755 0.556857 -0.254619)
(10.9672 0.683982 -0.295438)
(10.9182 0.621152 -0.301404)
(10.8469 0.569385 -0.272194)
(13.1769 -0.211558 0.524806)
(13.1673 -0.231698 0.516373)
(13.0982 -0.167544 0.567102)
(13.0972 -0.167233 0.532558)
(13.1491 -0.277097 0.538051)
(13.1352 -0.292118 0.551446)
(13.1333 -0.185569 0.54266)
(13.1143 -0.146951 0.560453)
(13.1312 -0.272344 0.548441)
(13.0972 -0.148886 0.58263)
(13.1108 -0.185032 0.608218)
(13.1096 -0.161877 0.61781)
(13.1054 -0.131046 0.593006)
(13.102 -0.241708 0.594031)
(13.1228 -0.131113 0.597124)
(13.1181 -0.158032 0.616568)
(13.0996 -0.242314 0.593457)
(8.41553 0.0545339 0.150966)
(8.33324 0.0346248 0.191096)
(8.17896 0.0964135 0.228541)
(7.58508 -0.122667 0.0307303)
(7.56325 -0.074737 -0.0371635)
(8.07024 0.108883 0.133737)
(8.3126 -0.352659 -0.349812)
(8.33852 -0.29376 -0.318177)
(8.14987 -0.256732 -0.263371)
(7.97152 -0.257452 -0.233586)
(8.25634 0.118834 0.255218)
(8.32762 0.0956385 0.18641)
(8.41762 -0.0860536 0.0852119)
(8.42655 -0.00214195 0.0953646)
(7.93721 -0.219822 -0.222868)
(7.93005 -0.142258 -0.187703)
(7.61219 -0.0569898 -0.0705482)
(8.21 0.0956117 0.121694)
(8.37845 -0.106596 0.0532343)
(8.21984 -0.0119411 0.0189899)
(11.8343 -0.0134633 0.544327)
(11.6889 -0.076713 0.534943)
(11.683 -0.0156503 0.516284)
(11.7967 0.0105719 0.537369)
(11.6719 -0.120145 0.554244)
(11.3896 -0.0943052 0.542545)
(11.6037 -0.186338 0.53121)
(11.8484 -0.0296457 0.489803)
(11.8409 -0.00766129 0.521214)
(11.7861 -0.0696185 0.517603)
(11.4165 -0.208647 0.472758)
(11.3602 -0.123144 0.541595)
(11.8116 0.016623 0.523362)
(11.5692 -0.0900298 0.516795)
(11.576 -0.127042 0.49782)
(11.3224 -0.177477 0.498156)
(3.10714 -0.182593 0.783952)
(3.16044 -0.39911 0.919304)
(2.26897 -0.361085 1.22772)
(2.17903 -0.0980381 1.22846)
(5.96257 -0.662432 0.637005)
(4.54591 -0.526448 0.69446)
(7.68496 -0.1971 0.845321)
(5.78971 0.161551 0.964965)
(3.43299 0.38983 1.4411)
(4.79004 -0.0908136 1.18607)
(7.63311 -0.217208 0.730437)
(5.89935 -0.164032 0.938322)
(4.95008 0.308865 0.924471)
(12.5 -0.149892 0.9833)
(12.4585 -0.0660579 1.05292)
(12.5726 -0.179052 0.95989)
(12.699 -0.185704 0.880703)
(12.8508 -0.177805 0.828211)
(12.7505 -0.162417 0.903181)
(12.4513 -0.0577855 1.07169)
(12.5992 0.0542892 0.939616)
(12.7289 -0.079983 0.886283)
(12.6913 -0.163219 0.863174)
(12.9386 -0.10339 0.803507)
(12.6287 0.107419 0.911586)
(11.7875 0.401271 -0.0960923)
(11.7392 0.299842 -0.129499)
(11.7901 0.264581 -0.142023)
(11.882 0.400653 -0.0744609)
(11.8206 0.343578 -0.0793408)
(11.8594 0.31775 -0.0984087)
(12.0159 0.382825 -0.0948816)
(12.1097 0.39357 -0.112332)
(12.0111 0.291747 -0.11574)
(11.9654 0.278482 -0.11476)
(12.0257 0.616647 -0.196152)
(12.1125 0.611613 -0.195749)
(11.944 0.563171 -0.225177)
(12.0071 0.55663 -0.207597)
(11.8501 0.551075 -0.232346)
(11.8969 0.471226 -0.15312)
(11.9183 0.373974 -0.0871058)
(11.9588 0.563701 -0.190694)
(11.9851 0.447383 -0.129767)
(11.8496 -0.482181 0.235122)
(11.8036 -0.447256 0.290236)
(12.0527 -0.362557 0.16186)
(12.0344 -0.308186 0.199614)
(12.0705 -0.301788 0.221816)
(12.4649 -0.382552 0.387105)
(12.2882 -0.407152 0.366049)
(11.9428 -0.419791 0.250917)
(12.2243 -0.421046 0.210522)
(12.9129 -0.317969 0.536365)
(12.9114 -0.329587 0.532658)
(12.0989 -0.422063 0.332961)
(12.8831 -0.36381 0.374325)
(12.674 -0.378319 0.328747)
(12.8512 -0.334067 0.486428)
(13.0151 -0.31007 0.51765)
(13.0389 -0.290036 0.488991)
(12.7199 -0.388005 0.403088)
(12.9786 -0.300508 0.449887)
(1.57902 0.397401 -1.40103)
(1.74163 0.307898 -1.59496)
(2.42951 0.0819869 -1.50122)
(2.16602 0.125743 -1.41142)
(1.95784 0.143153 -1.43677)
(2.08376 0.101498 -1.49249)
(2.48237 -0.198046 -1.42308)
(2.73393 -0.296789 -1.47869)
(2.95858 -0.345354 -1.50735)
(2.84448 -0.307376 -1.39998)
(3.31434 -0.541473 -1.37497)
(3.40353 -0.609669 -1.44374)
(2.93875 -0.115891 -1.43858)
(3.31902 -0.471571 -1.5492)
(3.05524 -0.195399 -1.38258)
(2.5446 -0.0621475 -1.48397)
(10.909 0.514287 -0.314228)
(10.8268 0.481693 -0.247644)
(10.877 0.49258 -0.328054)
(10.9723 0.551923 -0.391893)
(10.9006 0.543145 -0.663891)
(10.8256 0.53375 -0.657129)
(10.8375 0.487359 -0.30366)
(10.9342 0.561829 -0.531873)
(10.8709 0.568444 -0.651521)
(10.8237 0.533749 -0.660762)
(10.7931 0.407641 -0.374618)
(10.8845 0.470024 -0.484884)
(10.8772 0.556992 -0.483912)
(10.7578 0.41951 -0.376342)